SMILES,Surfactant_Type,CMC,pCMC,AW_ST_CMC,Gamma_max,Area_min,Pi_CMC,pC20,C20,Temp_Celsius,Ref_CMC,Ref_AW_ST_CMC,SubRef_CMC,SubRef_AW_ST_CMC,Ref_Gamma_max,Ref_Pi_CMC,Ref_Area_min,Ref_pC20,Ref_C20,IUPAC_name,InChI,InChIKey,Molecular_Weight
CCCCCCCCCCCCOCC(CCC[N+](C)(C)C)(CCC[N+](C)(C)C)COCCCCCCCCCCCC.[I-].[I-],gemini cationic,0.0000281,4.55129368009492,33,0.00000237,0.7,39,5.2,0.00000631,25,10.1016/j.jcis.2014.02.017,10.1016/j.ces.2022.118208,,10.1016/j.jcis.2014.02.017,10.1016/j.jcis.2014.02.017,10.1016/j.jcis.2014.02.017,10.1016/j.jcis.2014.02.017,10.1016/j.jcis.2014.02.017,10.1016/j.jcis.2014.02.017,"4,4-bis(dodecyloxymethyl)-N,N,N,N',N0',N'-hexamethyl-1,7-heptanediammoniumdiiodide","InChI=1S/C39H84N2O2.2HI/c1-9-11-13-15-17-19-21-23-25-27-35-42-37-39(31-29-33-40(3,4)5,32-30-34-41(6,7)8)38-43-36-28-26-24-22-20-18-16-14-12-10-2;;/h9-38H2,1-8H3;2*1H/q+2;;/p-2",ZQUFXRLOCIOWOB-UHFFFAOYSA-L,866.462225928
CCCCCCCCCCCCOCC(CC[N+](C)(C)C)(CC[N+](C)(C)C)COCCCCCCCCCCCC.[I-].[I-],gemini cationic,0.0000339,4.46980030179692,33.5,0.00000166,1,38.5,5.3,0.00000501,25,10.1016/j.jcis.2014.02.017,10.1016/j.ces.2022.118208,,10.1016/j.jcis.2014.02.017,10.1016/j.jcis.2014.02.017,10.1016/j.jcis.2014.02.017,10.1016/j.jcis.2014.02.017,10.1016/j.jcis.2014.02.017,10.1016/j.jcis.2014.02.017,"3,3-bis(dodecyloxymethyl)-N,N,N,N',N',N'-hexamethyl-1,5-pentanediammoniumdiiodide","InChI=1S/C37H80N2O2.2HI/c1-9-11-13-15-17-19-21-23-25-27-33-40-35-37(29-31-38(3,4)5,30-32-39(6,7)8)36-41-34-28-26-24-22-20-18-16-14-12-10-2;;/h9-36H2,1-8H3;2*1H/q+2;;/p-2",GWONPBPJZZFXLG-UHFFFAOYSA-L,838.4309258
CCCCCCCCCCCCOCC(COCCCCCCCCCCCC)(COCCC[N+](C)(C)C)COCCC[N+](C)(C)C.[I-].[I-],gemini cationic,0.0000219,4.65955588515988,34.3,0.00000138,1.2,37.7,5.42,0.0000038,25,10.1016/j.jcis.2014.02.017,10.1016/j.ces.2022.118208,,10.1016/j.jcis.2014.02.017,10.1016/j.jcis.2014.02.017,10.1016/j.jcis.2014.02.017,10.1016/j.jcis.2014.02.017,10.1016/j.jcis.2014.02.017,10.1016/j.jcis.2014.02.017,"6,6-bis(dodecyloxymethyl)-N,N,N,N',N',N'-hexamethyl-4,8-dioxa-1,11-undecanediammoniumdiiodide","InChI=1S/C41H88N2O4.2HI/c1-9-11-13-15-17-19-21-23-25-27-33-44-37-41(39-46-35-29-31-42(3,4)5,40-47-36-30-32-43(6,7)8)38-45-34-28-26-24-22-20-18-16-14-12-10-2;;/h9-40H2,1-8H3;2*1H/q+2;;/p-2",JROLZDSJTLMNDA-UHFFFAOYSA-L,926.483355296
CCCCCCCCCCCCOCC(COCCCCCCCCCCCC)(COCC[N+](C)(C)C)COCC[N+](C)(C)C.[I-].[I-],gemini cationic,0.0000533,4.27327279097343,31.5,0.00000166,1,40.5,5.42,0.0000038,25,10.1016/j.jcis.2014.02.017,10.1016/j.ces.2022.118208,,10.1016/j.jcis.2014.02.017,10.1016/j.jcis.2014.02.017,10.1016/j.jcis.2014.02.017,10.1016/j.jcis.2014.02.017,10.1016/j.jcis.2014.02.017,10.1016/j.jcis.2014.02.017,"5,5-bis(dodecyloxymethyl)-N,N,N,N',N',N'-hexamethyl-3,7-dioxa-1,9-nonanediammoniumdiiodide","InChI=1S/C39H84N2O4.2HI/c1-9-11-13-15-17-19-21-23-25-27-31-42-35-39(37-44-33-29-40(3,4)5,38-45-34-30-41(6,7)8)36-43-32-28-26-24-22-20-18-16-14-12-10-2;;/h9-38H2,1-8H3;2*1H/q+2;;/p-2",ZLMDTGIORFCKRP-UHFFFAOYSA-L,898.452055168
CCCCCCCCCCCCOCC(COCCCCCCCCCCCC)(C[N+](C)(C)C)C[N+](C)(C)C.[I-].[I-],gemini cationic,0.00000217,5.66354026615147,40.8,0.00000415,0.4,31.2,5.74,0.00000182,25,10.1016/j.jcis.2014.02.017,10.1016/j.ces.2022.118208,,10.1016/j.jcis.2014.02.017,10.1016/j.jcis.2014.02.017,10.1016/j.jcis.2014.02.017,10.1016/j.jcis.2014.02.017,10.1016/j.jcis.2014.02.017,10.1016/j.jcis.2014.02.017,"2,2-bis(dodecyloxymethyl)-N,N,N,N',N',N'-hexamethyl-1,3-propanediammoniumdiiodide","InChI=1S/C35H76N2O2.2HI/c1-9-11-13-15-17-19-21-23-25-27-29-38-33-35(31-36(3,4)5,32-37(6,7)8)34-39-30-28-26-24-22-20-18-16-14-12-10-2;;/h9-34H2,1-8H3;2*1H/q+2;;/p-2",ODNCOUGKNOBJRB-UHFFFAOYSA-L,810.399625672
CCCCCCCCCCCCOCC(C[N+](C)(C)CC(COCCCCCCCCCCCC)OCCO)OCCO.COS(=O)(=O)[O-],zwitterionic,0.000901,3.04527520902094,28.6,,,43.18,,,25,10.1016/j.jiec.2014.06.027,10.1016/j.ces.2022.118208,,10.1016/j.jiec.2014.06.027,,,,,,"N,N-bis-(3-n-dodecyloxy-2-hydroxypropyl)methylammoniumdiethoxylatemethylsulfate","InChI=1S/C36H76NO6.CH4O4S/c1-5-7-9-11-13-15-17-19-21-23-27-40-33-35(42-29-25-38)31-37(3,4)32-36(43-30-26-39)34-41-28-24-22-20-18-16-14-12-10-8-6-2;1-5-6(2,3)4/h35-36,38-39H,5-34H2,1-4H3;1H3,(H,2,3,4)/q+1;/p-1",VXFGVKALPCBLEC-UHFFFAOYSA-M,729.542468728
CCCCCCCCCCCCOCC(C[N+](C)(C)CC(COCCCCCCCCCCCC)OCCOCCOCCO)OCCOCCO.COS(=O)(=O)[O-],zwitterionic,0.000492,3.30803489723264,32.2,,,39.58,,,25,10.1016/j.jiec.2014.06.027,10.1016/j.ces.2022.118208,,10.1016/j.jiec.2014.06.027,,,,,,"N,N-bis-(3-n-dodecyloxy-2-hydroxypropyl)methylammoniumpentaethoxylatemethylsulfate","InChI=1S/C42H88NO9.CH4O4S/c1-5-7-9-11-13-15-17-19-21-23-27-49-39-41(51-35-33-47-30-26-45)37-43(3,4)38-42(52-36-34-48-32-31-46-29-25-44)40-50-28-24-22-20-18-16-14-12-10-8-6-2;1-5-6(2,3)4/h41-42,44-45H,5-40H2,1-4H3;1H3,(H,2,3,4)/q+1;/p-1",RZXZEMKAMQHAMU-UHFFFAOYSA-M,861.621112972
CCCCCCCCCCCCOCC(O)C[N+](C)(C)CC(O)COCCCCCCCCCCCC.COS(=O)(=O)[O-],zwitterionic,0.000152,3.81815641205523,28.9,,,43.07,,,25,10.1016/j.jiec.2012.01.040,10.1016/j.ces.2022.118208,,10.1016/j.jiec.2012.01.040,,calculated,,,,bis-(3-n-dodecyloxy-2-hydroxypropyl)dimethylammoniummethylsulfate,"InChI=1S/C32H68NO4.CH4O4S/c1-5-7-9-11-13-15-17-19-21-23-25-36-29-31(34)27-33(3,4)28-32(35)30-37-26-24-22-20-18-16-14-12-10-8-6-2;1-5-6(2,3)4/h31-32,34-35H,5-30H2,1-4H3;1H3,(H,2,3,4)/q+1;/p-1",WZTQONLEBQTPLV-UHFFFAOYSA-M,641.490039232
CCCCCCCCCCCCOCC(O)C[N+](C)(C)CC(O)C[N+](C)(C)CC(O)COCCCCCCCCCCCC.[Cl-].[Cl-],gemini cationic,0.000232,3.6345120151091,31.3,,,40.67,,,25,10.1016/j.jiec.2012.01.040,10.1016/j.ces.2022.118208,,10.1016/j.jiec.2012.01.040,,calculated,,,,"N,N0-bis-(3-n-dodecyloxy-2-hydroxypropylN,N,N0,N0-tetramethylpropane-1,3-diammoniumdichloride","InChI=1S/C37H80N2O5.2ClH/c1-7-9-11-13-15-17-19-21-23-25-27-43-33-36(41)31-38(3,4)29-35(40)30-39(5,6)32-37(42)34-44-28-26-24-22-20-18-16-14-12-10-8-2;;/h35-37,40-42H,7-34H2,1-6H3;2*1H/q+2;;/p-2",AITQGGSVEKYRDV-UHFFFAOYSA-L,702.54442902
CCCCCCCCCCCCOCC(O)C[N+](C)(C)CC(O)C[N+](C)(C)CC(O)C[N+](C)(C)CC(O)COCCCCCCCCCCCC.COS(=O)(=O)[O-].[Cl-].[Cl-],gemini cationic,0.000313,3.50445566245355,32.6,,,39.37,,,25,10.1016/j.jiec.2012.01.040,10.1016/j.ces.2022.118208,,10.1016/j.jiec.2012.01.040,,calculated,,,,"N,N-bis-(3-(3-n-dodecyloxy-2-hydroxypropylN0,N0-dimethylammonium)-2-hydroxypropyl)dimethylammoniumdichloridemethylsulfate","InChI=1S/C42H92N3O6.CH4O4S.2ClH/c1-9-11-13-15-17-19-21-23-25-27-29-50-37-41(48)35-44(5,6)33-39(46)31-43(3,4)32-40(47)34-45(7,8)36-42(49)38-51-30-28-26-24-22-20-18-16-14-12-10-2;1-5-6(2,3)4;;/h39-42,46-49H,9-38H2,1-8H3;1H3,(H,2,3,4);2*1H/q+3;;;/p-3",FXDSLZMMYTULOH-UHFFFAOYSA-K,915.6115226
CCCCCCCCCCCCOCC(O)C[N+](C)(C)CCCC[N+](C)(C)CC(O)COCCCCCCCCCCCC.[Br-].[Br-],gemini cationic,0.00019,3.72124639904717,36.4,0.00000224,0.74,35.6,4.36,0.0000436,25,10.1007/s11743-015-1734-2,10.1016/j.ces.2022.118208,,10.1007/s11743-015-1734-2,10.1007/s11743-015-1734-2,,10.1007/s11743-015-1734-2,10.1007/s11743-015-1734-2,,"Butanediyl-bis[N-(3-dodecoxyl-2-hydroxy)propyl-N,NdimethylammoniumBromide]","InChI=1S/C38H82N2O4.2BrH/c1-7-9-11-13-15-17-19-21-23-27-31-43-35-37(41)33-39(3,4)29-25-26-30-40(5,6)34-38(42)36-44-32-28-24-22-20-18-16-14-12-10-8-2;;/h37-38,41-42H,7-36H2,1-6H3;2*1H/q+2;;/p-2",YXZFDSFJAQOWEZ-UHFFFAOYSA-L,788.464133304
CCCCCCCCCCCCOCC(O)C[n+]1ccn(C)c1.[Br-],cationic,0.00117,2.93181413825384,21.9,0.00000189,0.88,49.88,3.7,0.000199,25,10.1016/j.colsurfa.2011.11.022,10.1016/j.ces.2022.118208,,10.1016/j.colsurfa.2011.11.022,10.1016/j.colsurfa.2011.11.022,10.1016/j.colsurfa.2011.11.022,10.1016/j.colsurfa.2011.11.022,10.1016/j.colsurfa.2011.11.022,10.1016/j.colsurfa.2011.11.022,3-(2-hydroxyl-3(tetradecyloxy)propyl-1-methyl-1H-imidazol3-iumbromide,"InChI=1S/C19H37N2O2.BrH/c1-3-4-5-6-7-8-9-10-11-12-15-23-17-19(22)16-21-14-13-20(2)18-21;/h13-14,18-19,22H,3-12,15-17H2,1-2H3;1H/q+1;/p-1",IIJONJVQEUNJEF-UHFFFAOYSA-M,404.203840524
CCCCCCCCCCCCOCC(O)C[n+]1ccn(C)c1.[Cl-],cationic,0.00371,2.43062609038495,23.2,0.00000179,0.93,48.58,3.91,0.000123,25,10.1016/j.colsurfa.2011.11.022,10.1016/j.ces.2022.118208,,10.1016/j.colsurfa.2011.11.022,10.1016/j.colsurfa.2011.11.022,10.1016/j.colsurfa.2011.11.022,10.1016/j.colsurfa.2011.11.022,10.1016/j.colsurfa.2011.11.022,10.1016/j.colsurfa.2011.11.022,3-(3-(dodecyloxy)-2-hydroxypropyl)-1-methyl-1H-imidazol3-iumchloride,"InChI=1S/C19H37N2O2.ClH/c1-3-4-5-6-7-8-9-10-11-12-15-23-17-19(22)16-21-14-13-20(2)18-21;/h13-14,18-19,22H,3-12,15-17H2,1-2H3;1H/q+1;/p-1",NIVRWDBMNCWJGY-UHFFFAOYSA-M,360.254356104
CCCCCCCCCCCCOCC(O)Cn1cc[n+](CCC)c1.[Br-],cationic,0.000254,3.59516628338006,27.7,0.00000193,1.55,44.49,0.83,0.149,25,10.1016/j.jiec.2014.01.032,10.1016/j.ces.2022.118208,,10.1016/j.jiec.2014.01.032,10.1016/j.jiec.2014.01.032,10.1016/j.jiec.2014.01.032,10.1016/j.jiec.2014.01.032,,10.1016/j.jiec.2014.01.032,1-(3-(Dodecyloxy)-2-hydroxypropyl)-3-propyl-1H-imidazol-3-iumbromide,"InChI=1S/C21H41N2O2.BrH/c1-3-5-6-7-8-9-10-11-12-13-17-25-19-21(24)18-23-16-15-22(20-23)14-4-2;/h15-16,20-21,24H,3-14,17-19H2,1-2H3;1H/q+1;/p-1",IEMRVDDBHKQEOW-UHFFFAOYSA-M,432.235140652
CCCCCCCCCCCCOCC(O)Cn1cc[n+](CCC)c1.[Cl-],cationic,0.000398,3.40011692792631,34.9,0.00000187,1.59,37.32,0.75,0.179,25,10.1016/j.jiec.2014.01.032,10.1016/j.ces.2022.118208,,10.1016/j.jiec.2014.01.032,10.1016/j.jiec.2014.01.032,10.1016/j.jiec.2014.01.032,10.1016/j.jiec.2014.01.032,,10.1016/j.jiec.2014.01.032,1-(3-(Dodecyloxy)-2-hydroxypropyl)-3-propyl-1H-imidazol-3-iumchloride,"InChI=1S/C21H41N2O2.ClH/c1-3-5-6-7-8-9-10-11-12-13-17-25-19-21(24)18-23-16-15-22(20-23)14-4-2;/h15-16,20-21,24H,3-14,17-19H2,1-2H3;1H/q+1;/p-1",NUZSMCIUEHURRR-UHFFFAOYSA-M,388.285656232
CCCCCCCCCCCCOCC(O)Cn1cc[n+](CCC[n+]2ccn(CC(O)COCCCCCCCCCCCC)c2)c1.[Br-].[Br-],gemini cationic,0.00002,4.69897000433602,36.1,0.00000348,0.05,36.32,2.1,0.008,25,10.1007/s11743-013-1472-2,10.1016/j.ces.2022.118208,,10.1007/s11743-013-1472-2,10.1007/s11743-013-1472-2,10.1007/s11743-013-1472-2,10.1007/s11743-013-1472-2,,10.1007/s11743-013-1472-2,"1,3-bis(1(3-alkoxy-2-hydroxypropyl)-1H-imidazol-3-ium)propanebromide","InChI=1S/C39H74N4O4.2BrH/c1-3-5-7-9-11-13-15-17-19-21-30-46-34-38(44)32-42-28-26-40(36-42)24-23-25-41-27-29-43(37-41)33-39(45)35-47-31-22-20-18-16-14-12-10-8-6-4-2;;/h26-29,36-39,44-45H,3-25,30-35H2,1-2H3;2*1H/q+2;;/p-2",ZKSJUEVDYFPZHH-UHFFFAOYSA-L,820.407681048
CCCCCCCCCCCCOCC(O)Cn1cc[n+](CC[n+]2ccn(CC(O)COCCCCCCCCCCCC)c2)c1.[Br-].[Br-],gemini cationic,0.000022,4.65757731917779,30,0.00000453,0.04,42.36,2,0.01,25,10.1007/s11743-013-1472-2,10.1016/j.ces.2022.118208,,10.1007/s11743-013-1472-2,10.1007/s11743-013-1472-2,10.1007/s11743-013-1472-2,10.1007/s11743-013-1472-2,,10.1007/s11743-013-1472-2,"1,2-bis(1(3-alkoxy2-hydroxypropyl)-1H-imidazol-3-ium)ethanebromide","InChI=1S/C38H72N4O4.2BrH/c1-3-5-7-9-11-13-15-17-19-21-29-45-33-37(43)31-41-27-25-39(35-41)23-24-40-26-28-42(36-40)32-38(44)34-46-30-22-20-18-16-14-12-10-8-6-4-2;;/h25-28,35-38,43-44H,3-24,29-34H2,1-2H3;2*1H/q+2;;/p-2",KGNBYITWHHYSPE-UHFFFAOYSA-L,806.392030984
CCCCCCCCCCCCOCC1OC(OC2C(CO)OC(O)C(O)C2O)C(O)C(O)C1O,sugar-based non-ionic,0.00033,3.48148606012211,39,0.0000033,0.5,39,4.17852734543153,0.0153210535809552,22,10.1021/acs.iecr.6b02890,10.1016/j.jcis.2018.01.051,10.1016/j.molliq.2018.01.037,,10.1021/la001309z,10.1021/la001309z,10.1021/la001309z,calculated,calculated,6′-O-dodecanoylmaltose,"InChI=1S/C24H46O11/c1-2-3-4-5-6-7-8-9-10-11-12-32-14-16-17(26)18(27)21(30)24(34-16)35-22-15(13-25)33-23(31)20(29)19(22)28/h15-31H,2-14H2,1H3",IJSDEXPWHIBBHX-UHFFFAOYSA-N,510.304012292
CCCCCCCCCCCCOCCOCCOCCO,non-ionic,0.000052,4.2839966563652,27.7,0.00000398,0.42,44.1,5.353446114627,0.00473181648826541,25,10.1021/acs.jpcb.1c05264,10.1016/j.ces.2022.118208,10.1002/9781118228920,10.1002/0471670561,10.1021/j100393a025,10.1021/j100393a025,10.1021/j100393a025,calculated,calculated,2-[2-(2-dodecoxyethoxy)ethoxy]ethanol,"InChI=1S/C18H38O4/c1-2-3-4-5-6-7-8-9-10-11-13-20-15-17-22-18-16-21-14-12-19/h19H,2-18H2,1H3",FKMHSNTVILORFA-UHFFFAOYSA-N,318.277009696
CCCCCCCCCCCCOCCOCCOCCOCCO,non-ionic,0.000004,5.39794000867204,28.4,0.00000363,0.46,43.3,6.53730006744948,0.00144839379017691,24.85,"['10.1007/s11743-001-0184-2', '10.1021/acs.jpcb.1c05264', '10.1021/acs.jpcb.1c05264']",10.1016/j.ces.2022.118208,10.1002/9781118228920,10.1002/0471670561,10.1021/j100393a025,10.1021/j100393a025,10.1021/j100393a025,calculated,calculated,POE(4) lauryl ether,"InChI=1S/C20H42O5/c1-2-3-4-5-6-7-8-9-10-11-13-22-15-17-24-19-20-25-18-16-23-14-12-21/h21H,2-20H2,1H3",WPMWEFXCIYCJSA-UHFFFAOYSA-N,362.303224444
CCCCCCCCCCCCOCCOCCOCCOCCOCCO,non-ionic,0.000064,4.19382002601611,30.3,0.00000331,0.5,41.5,5.34215555884764,0.0047855440626016,25,10.1021/acs.jpcb.1c05264,10.1016/j.ces.2022.118208,10.1002/9781118228920,10.1002/0471670561,10.1021/j100393a025,10.1021/j100393a025,10.1021/j100393a025,calculated,calculated,2-[2-[2-[2-(2-dodecoxyethoxy)ethoxy]ethoxy]ethoxy]ethanol,"InChI=1S/C22H46O6/c1-2-3-4-5-6-7-8-9-10-11-13-24-15-17-26-19-21-28-22-20-27-18-16-25-14-12-23/h23H,2-22H2,1H3",LAPRIVJANDLWOK-UHFFFAOYSA-N,406.329439192
CCCCCCCCCCCCOCCOCCOCCOCCOCCOCCO,non-ionic,0.000087,4.06048074738138,30.8,,,41.2,,,25,10.1021/acs.jpcb.1c05264,10.1016/j.ces.2022.118208,10.1002/9781118228920,10.1002/0471670561,,,,,,2-[2-[2-[2-[2-(2-dodecoxyethoxy)ethoxy]ethoxy]ethoxy]ethoxy]ethanol,"InChI=1S/C24H50O7/c1-2-3-4-5-6-7-8-9-10-11-13-26-15-17-28-19-21-30-23-24-31-22-20-29-18-16-27-14-12-25/h25H,2-24H2,1H3",OJCFEGKCRWEVSN-UHFFFAOYSA-N,450.35565394
CCCCCCCCCCCCOCCOCCOCCOCCOCCOCCOCCO,non-ionic,0.000082,4.08618614761628,33.5,0.0000029,0.57,38.3,5.20359161961595,0.00549678655831466,25,10.1021/acs.jpcb.1c05264,10.1016/j.ces.2022.118208,10.1002/9781118228920,10.1002/0471670561,10.1021/j100393a025,10.1021/j100393a025,10.1021/j100393a025,calculated,calculated,2-[2-[2-[2-[2-[2-(2-dodecoxyethoxy)ethoxy]ethoxy]ethoxy]ethoxy]ethoxy]ethanol,"InChI=1S/C26H54O8/c1-2-3-4-5-6-7-8-9-10-11-13-28-15-17-30-19-21-32-23-25-34-26-24-33-22-20-31-18-16-29-14-12-27/h27H,2-26H2,1H3",DWHIUNMOTRUVPG-UHFFFAOYSA-N,494.381868688
CCCCCCCCCCCCOCCOCCOCCOCCOCCOCCOCCOCCO,non-ionic,0.000109,3.96257350205938,34.6,0.00000252,0.66,37.2,5.17201752001525,0.00567311164926984,25,10.1021/acs.jpcb.1c05264,10.1016/j.ces.2022.118208,10.1002/9781118228920,10.1002/0471670561,10.1021/j100393a025,10.1021/j100393a025,10.1021/j100393a025,calculated,calculated,2-[2-[2-[2-[2-[2-[2-(2-dodecoxyethoxy)ethoxy]ethoxy]ethoxy]ethoxy]ethoxy]ethoxy]ethanol,"InChI=1S/C28H58O9/c1-2-3-4-5-6-7-8-9-10-11-13-30-15-17-32-19-21-34-23-25-36-27-28-37-26-24-35-22-20-33-18-16-31-14-12-29/h29H,2-28H2,1H3",YYELLDKEOUKVIQ-UHFFFAOYSA-N,538.408083436
CCCCCCCCCCCCOCCOCCOCCOCCOCCOCCOCCOCCOCCO,non-ionic,,,35.8,,,,,,,,10.1016/j.ces.2022.118208,,10.1002/0471670561,,,,,,,"InChI=1S/C30H62O10/c1-2-3-4-5-6-7-8-9-10-11-13-32-15-17-34-19-21-36-23-25-38-27-29-40-30-28-39-26-24-37-22-20-35-18-16-33-14-12-31/h31H,2-30H2,1H3",ONJQDTZCDSESIW-UHFFFAOYSA-N,582.434298184
CCCCCCCCCCCCOCCOCCOCCOCCOCCOCCOCCOCCOCCOCCOCCOCCO,non-ionic,,,39.8,,,,,,,,10.1016/j.ces.2022.118208,,10.1002/0471670561,,,,,,,"InChI=1S/C36H74O13/c1-2-3-4-5-6-7-8-9-10-11-13-38-15-17-40-19-21-42-23-25-44-27-29-46-31-33-48-35-36-49-34-32-47-30-28-45-26-24-43-22-20-41-18-16-39-14-12-37/h37H,2-36H2,1H3",WMPGRAUYWYBJKX-UHFFFAOYSA-N,714.512942428
CCCCCCCCCCCCOCCOCCOCCOCCOCCOCCOCCOCCOCCOCCOCCOCCOCCOCCOCCOCCOCCOCCOCCOCCOCCOCCOCCO,non-ionic,0.00006,4.22184874961636,,,,,,,24.85,10.1007/s11743-001-0184-2,,,,,,,,,POE(23) lauryl ether,"InChI=1S/C58H118O24/c1-2-3-4-5-6-7-8-9-10-11-13-60-15-17-62-19-21-64-23-25-66-27-29-68-31-33-70-35-37-72-39-41-74-43-45-76-47-49-78-51-53-80-55-57-82-58-56-81-54-52-79-50-48-77-46-44-75-42-40-73-38-36-71-34-32-69-30-28-67-26-24-65-22-20-63-18-16-61-14-12-59/h59H,2-58H2,1H3",IEQAICDLOKRSRL-UHFFFAOYSA-N,1198.801304656
CCCCCCCCCCCCOCCOCCOCCOCCOCCOS(=O)(=O)[O-].[Na+],anionic,0.0019,2.72124639904717,,,,,,,25,10.1016/0021-9797(76)90178-8,,,,,,,,,,"InChI=1S/C22H46O9S.Na/c1-2-3-4-5-6-7-8-9-10-11-12-26-13-14-27-15-16-28-17-18-29-19-20-30-21-22-31-32(23,24)25;/h2-22H2,1H3,(H,23,24,25);/q;+1/p-1",YEUIGVFKDKRDSA-UHFFFAOYSA-M,508.2681983
CCCCCCCCCCCCOCCOCCOCCOS(=O)(=O)[O-].[Na+],anionic,0.0028,2.55284196865778,,,,,,,25,10.1016/0021-9797(76)90178-8,,,,,,,,,,"InChI=1S/C18H38O7S.Na/c1-2-3-4-5-6-7-8-9-10-11-12-22-13-14-23-15-16-24-17-18-25-26(19,20)21;/h2-18H2,1H3,(H,19,20,21);/q;+1/p-1",SXHLENDCVBIJFO-UHFFFAOYSA-M,420.215768804
CCCCCCCCCCCCOCCOCCOCC[N+](C)(C)C.[Br-],cationic,0.0034,2.46852108295775,44.5,,1.21,27.7,,,25,10.1016/0927-7757(95)03093-S,10.1016/j.ces.2022.118208,,10.1007/BF01550555,,10.1016/0927-7757(95)03093-S,10.1016/0927-7757(95)03093-S,,,,"InChI=1S/C21H46NO3.BrH/c1-5-6-7-8-9-10-11-12-13-14-16-23-18-20-25-21-19-24-17-15-22(2,3)4;/h5-21H2,1-4H3;1H/q+1;/p-1",VUHHHIKZKOGQDU-UHFFFAOYSA-M,439.266106432
CCCCCCCCCCCCOCCOCCOS(=O)(=O)[O-].[Na+],anionic,0.0029,2.53760200210104,41.4,0.0000026,0.64,30.6,2.94,0.00116,25,"['10.1016/0021-9797(76)90178-8', '10.1021/acs.jpcb.1c05264', '10.1021/acs.jpcb.1c05264']",,10.1002/9781118228920,,10.1002/9781118228920.ch5,10.1002/9781118228920.ch5,,,10.1002/9781118228920.ch5,sodium-2-(2-dodecoxyethoxy)ethylsulfate,"InChI=1S/C16H34O6S.Na/c1-2-3-4-5-6-7-8-9-10-11-12-20-13-14-21-15-16-22-23(17,18)19;/h2-16H2,1H3,(H,17,18,19);/q;+1/p-1",GUQPDKHHVFLXHS-UHFFFAOYSA-M,376.189554056
CCCCCCCCCCCCOCCOCC[N+](C)(C)C.[Br-],cationic,0.0037,2.43179827593301,42.6,,0.99,29.6,,,25,10.1016/0927-7757(95)03093-S,10.1016/j.ces.2022.118208,,10.1007/BF01550555,,10.1016/0927-7757(95)03093-S,10.1016/0927-7757(95)03093-S,,,,"InChI=1S/C19H42NO2.BrH/c1-5-6-7-8-9-10-11-12-13-14-16-21-18-19-22-17-15-20(2,3)4;/h5-19H2,1-4H3;1H/q+1;/p-1",PSTVLZMFTCVKAK-UHFFFAOYSA-M,395.239891684
CCCCCCCCCCCCOCCOCC[N+](C)(C)C.[Cl-],cationic,0.0052,2.2839966563652,,,,,,,25,10.1016/0021-9797(76)90178-8,,,,,,,,,,"InChI=1S/C19H42NO2.ClH/c1-5-6-7-8-9-10-11-12-13-14-16-21-18-19-22-17-15-20(2,3)4;/h5-19H2,1-4H3;1H/q+1;/p-1",UMOIINYYOQMZTH-UHFFFAOYSA-M,351.290407264
CCCCCCCCCCCCOCCOCC[N+]1CCCCC1.[Cl-],cationic,0.0049,2.30980391997149,,,,,,,25,10.1016/0021-9797(76)90178-8,,,,,,,,,,"InChI=1S/C21H43NO2.ClH/c1-2-3-4-5-6-7-8-9-10-14-18-23-20-21-24-19-17-22-15-12-11-13-16-22;/h2-21H2,1H3;1H/q+1;/p-1",NOCCYQRIWQSIHP-UHFFFAOYSA-M,376.298232296
CCCCCCCCCCCCOCCOS(=O)(=O)[O-].[Na+],anionic,0.0039,2.4089353929735,41.1,0.0000032,0.52,30.9,3.73,0.000188,25,"['10.1016/0021-9797(76)90178-8', '10.1021/acs.jpcb.1c05264', '10.1021/acs.jpcb.1c05264']",,10.1002/9781118228920,,10.1002/9781118228920.ch5,10.1002/9781118228920.ch5,,,,sodium-2-dodecoxyethylsulfate,"InChI=1S/C14H30O5S.Na/c1-2-3-4-5-6-7-8-9-10-11-12-18-13-14-19-20(15,16)17;/h2-14H2,1H3,(H,15,16,17);/q;+1/p-1",ASEFUFIKYOCPIJ-UHFFFAOYSA-M,332.163339308
CCCCCCCCCCCCOCC[N+](C)(C)C.[Br-],cationic,0.0063,2.20065945054642,41,,0.85,31.2,,,25,10.1016/0927-7757(95)03093-S,10.1016/j.ces.2022.118208,,10.1007/BF01550555,,10.1016/0927-7757(95)03093-S,10.1016/0927-7757(95)03093-S,,,,"InChI=1S/C17H38NO.BrH/c1-5-6-7-8-9-10-11-12-13-14-16-19-17-15-18(2,3)4;/h5-17H2,1-4H3;1H/q+1;/p-1",ZYIPISLGSLKSRG-UHFFFAOYSA-M,351.213676936
CCCCCCCCCCCCOCC[N+](C)(C)C.[Cl-],cationic,0.0071,2.14874165128092,,,,,,,25,10.1016/0021-9797(76)90178-8,,,,,,,,,,"InChI=1S/C17H38NO.ClH/c1-5-6-7-8-9-10-11-12-13-14-16-19-17-15-18(2,3)4;/h5-17H2,1-4H3;1H/q+1;/p-1",UMNQHIWEUJDBGY-UHFFFAOYSA-M,307.264192516
CCCCCCCCCCCCOCC[N+]1CCCCC1.[Cl-],cationic,0.0069,2.16115090926275,,,,,,,25,10.1016/0021-9797(76)90178-8,,,,,,,,,,"InChI=1S/C19H39NO.ClH/c1-2-3-4-5-6-7-8-9-10-14-18-21-19-17-20-15-12-11-13-16-20;/h2-19H2,1H3;1H/q+1;/p-1",RWHMSRSPHHIFRY-UHFFFAOYSA-M,332.272017548
CCCCCCCCCCCCOCOC[C@H]1OC(O)[C@H](O)[C@@H](O)[C@@H]1O,non-ionic,0.0002301,3.63808338133136,,,,,,,25,10.1021/ie4016232,,,,,,,,,,"InChI=1S/C19H38O7/c1-2-3-4-5-6-7-8-9-10-11-12-24-14-25-13-15-16(20)17(21)18(22)19(23)26-15/h15-23H,2-14H2,1H3/t15-,16-,17+,18-,19?/m1/s1",PDGGZVHJKLXWJY-DQROZCCUSA-N,378.261753556