SMILES,Surfactant_Type,CMC,pCMC,AW_ST_CMC,Gamma_max,Area_min,Pi_CMC,pC20,C20,Temp_Celsius,Ref_CMC,Ref_AW_ST_CMC,SubRef_CMC,SubRef_AW_ST_CMC,Ref_Gamma_max,Ref_Pi_CMC,Ref_Area_min,Ref_pC20,Ref_C20,IUPAC_name,InChI,InChIKey,Molecular_Weight
CCCCCCCCCCCC(=O)NC(CCCNC(=[N+])N)C(=O)NCCCCCCCCCNC(=O)C(CCCNC(=[N+])N)NC(=O)CCCCCCCCCCC.[Cl-].[Cl-],gemini cationic,,,36,,,,,,,,10.1016/j.ces.2022.118208,,10.1021/la960301f,,,,,,,"InChI=1S/C45H88N10O4.2ClH/c1-3-5-7-9-11-13-16-20-24-32-40(56)54-38(30-28-36-52-44(46)47)42(58)50-34-26-22-18-15-19-23-27-35-51-43(59)39(31-29-37-53-45(48)49)55-41(57)33-25-21-17-14-12-10-8-6-4-2;;/h38-39,52-53H,3-37,46,48H2,1-2H3,(H,50,58)(H,51,59)(H,54,56)(H,55,57);2*1H/q+2;;/p-2",GECNRXPKFWMZSI-UHFFFAOYSA-L,902.636706656
CCCCCCCCCCCC(=O)NC(CCCNC(=[N+])N)C(=O)NCCCCCCNC(=O)C(CCCNC(=[N+])N)NC(=O)CCCCCCCCCCC.[Cl-].[Cl-],gemini cationic,,,34,,,,,,,,10.1016/j.ces.2022.118208,,10.1021/la960301f,,,,,,,"InChI=1S/C42H82N10O4.2ClH/c1-3-5-7-9-11-13-15-17-21-29-37(53)51-35(27-25-33-49-41(43)44)39(55)47-31-23-19-20-24-32-48-40(56)36(28-26-34-50-42(45)46)52-38(54)30-22-18-16-14-12-10-8-6-4-2;;/h35-36,49-50H,3-34,43,45H2,1-2H3,(H,47,55)(H,48,56)(H,51,53)(H,52,54);2*1H/q+2;;/p-2",NLEJBYJMHVDMKS-UHFFFAOYSA-L,860.589756464
CCCCCCCCCCCC(=O)NC(CCCNC(=[N+])N)C(=O)NCCCNC(=O)C(CCCNC(=[N+])N)NC(=O)CCCCCCCCCCC.[Cl-].[Cl-],gemini cationic,,,36,,,,,,,,10.1016/j.ces.2022.118208,,10.1021/la960301f,,,,,,,"InChI=1S/C39H76N10O4.2ClH/c1-3-5-7-9-11-13-15-17-19-26-34(50)48-32(24-21-28-46-38(40)41)36(52)44-30-23-31-45-37(53)33(25-22-29-47-39(42)43)49-35(51)27-20-18-16-14-12-10-8-6-4-2;;/h32-33,46-47H,3-31,40,42H2,1-2H3,(H,44,52)(H,45,53)(H,48,50)(H,49,51);2*1H/q+2;;/p-2",KRMBYRXOFHQOQF-UHFFFAOYSA-L,818.542806272
CCCCCCCCCCCC(=O)NC(CCCNC([N+])N)C(=O)OC.[Cl-],cationic,0.0058,2.23657200643706,32,0.00000248,0.67,40,2.94286578777948,0.0527144436579846,25,10.1016/j.crci.2004.02.009,10.1016/j.ces.2022.118208,,10.1016/j.crci.2004.02.009,,10.1016/j.crci.2004.02.009,10.1016/j.crci.2004.02.009,calculated,calculated,α-N-decyl-arginine-methylesterhydrochloride,"InChI=1S/C19H38N4O3.ClH/c1-3-4-5-6-7-8-9-10-11-14-17(24)23-16(18(25)26-2)13-12-15-22-19(20)21;/h16,19,22H,3-15,20H2,1-2H3,(H,23,24);1H/q+1;/p-1",XMALXJHAXLKTAH-UHFFFAOYSA-M,405.263243756
CCCCCCCCCCCC(=O)NC(O)[C@H]1O[C@@H](O[C@@H]([C@H](O)[C@@H](O)CO)[C@H](O)CO)[C@H](O)[C@@H](O)[C@H]1O,sugar-based non-ionic,0.000447,3.34969247686806,37.2,0.00000332,0.499,34.77,4.02,0.0179529649395029,25,10.1021/acs.iecr.6b02890,10.1016/j.jcis.2018.01.051,10.1016/j.molliq.2018.01.037,,10.1007/s11743-001-0169-1,calculated,,10.1007/s11743-001-0169-1,calculated,N-dodecanoyl-N-methyllactitolamine,"InChI=1S/C24H47NO12/c1-2-3-4-5-6-7-8-9-10-11-16(30)25-23(35)22-19(33)18(32)20(34)24(37-22)36-21(15(29)13-27)17(31)14(28)12-26/h14-15,17-24,26-29,31-35H,2-13H2,1H3,(H,25,30)/t14-,15+,17+,18-,19+,20+,21+,22-,23?,24+/m0/s1",QODKPISYXJTOBW-LNAZLKFBSA-N,541.309825944
CCCCCCCCCCCC(=O)NC1CCOC1=O,sugar-based non-ionic,0.000004,5.39794000867204,,,,,,,25,10.1021/acs.jpcb.1c05264,,10.1002/9781118228920,,,,,,,N-(2-oxooxolan-3-yl)dodecanamide,"InChI=1S/C16H29NO3/c1-2-3-4-5-6-7-8-9-10-11-15(18)17-14-12-13-20-16(14)19/h14H,2-13H2,1H3,(H,17,18)",WILLZMOKUUPJSL-UHFFFAOYSA-N,283.214743788
CCCCCCCCCCCC(=O)NCCC[N+](C)(C)CC(O)CO.[Cl-],cationic,0.00122,2.91364016932525,40,0.0000027,0.8,31.78,3.57,0.00027,25,10.1007/s11743-013-1436-6,10.1016/j.ces.2022.118208,,10.1007/s11743-013-1436-6,10.1007/s11743-013-1436-6,,10.1007/s11743-013-1436-6,,,Lauramidopropylglyceryldimethylammoniumchloride,"InChI=1S/C20H42N2O3.ClH/c1-4-5-6-7-8-9-10-11-12-14-20(25)21-15-13-16-22(2,3)17-19(24)18-23;/h19,23-24H,4-18H2,1-3H3;1H",PPLWNVQOIXHACL-UHFFFAOYSA-N,394.296220916
CCCCCCCCCCCC(=O)NCCC[N+](C)(C)CC=CC[N+](C)(C)CCCNC(=O)CCCCCCCCCC.[Br-].[Br-],gemini cationic,0.000256,3.59176003468815,36.33,0.00000181,0.91,35.77,4.09724265739564,0.0166184350041732,25,10.1007/s11743-017-1969-1,,,10.1007/s11743-017-1969-1,10.1007/s11743-017-1969-1,10.1007/s11743-017-1969-1,,calculated,calculated,,"InChI=1S/C37H74N4O2.2BrH/c1-7-9-11-13-15-17-19-21-23-29-37(43)39-31-27-35-41(5,6)33-25-24-32-40(3,4)34-26-30-38-36(42)28-22-20-18-16-14-12-10-8-2;;/h24-25H,7-23,26-35H2,1-6H3;2*1H",ROPZZLSHKCANEH-UHFFFAOYSA-N,766.433501872
CCCCCCCCCCCC(=O)NCCC[N+](C)(C)CC=CC[N+](C)(C)CCCNC(=O)CCCCCCCCCC.[Cl-].[Cl-],gemini cationic,0.000361,3.44249279809434,38.12,0.0000016,1.05,33.88,3.94899961182104,0.0192739735894728,25,10.1007/s11743-017-1969-1,,,10.1007/s11743-017-1969-1,10.1007/s11743-017-1969-1,10.1007/s11743-017-1969-1,,calculated,calculated,,"InChI=1S/C37H74N4O2.2ClH/c1-7-9-11-13-15-17-19-21-23-29-37(43)39-31-27-35-41(5,6)33-25-24-32-40(3,4)34-26-30-38-36(42)28-22-20-18-16-14-12-10-8-2;;/h24-25H,7-23,26-35H2,1-6H3;2*1H",LUZBMBACIZXYIH-UHFFFAOYSA-N,678.534533032
CCCCCCCCCCCC(=O)NCCC[N+](C)(C)CCCCCC[N+](C)(C)CCCNC(=O)CCCCCCCCCCC.[Br-].[Br-],gemini cationic,,,38.4,,,,,,,,10.1016/j.ces.2022.118208,,10.1002/jsde.12346,,,,,,,"InChI=1S/C40H82N4O2.2BrH/c1-7-9-11-13-15-17-19-21-25-31-39(45)41-33-29-37-43(3,4)35-27-23-24-28-36-44(5,6)38-30-34-42-40(46)32-26-22-20-18-16-14-12-10-8-2;;/h7-38H2,1-6H3;2*1H",TWUQJNIANJTHCY-UHFFFAOYSA-N,810.496102128
CCCCCCCCCCCC(=O)NCCC[N+](C)(C)Cc1ccc(C[N+](C)(C)CCCNC(=O)CCCCCCCCCCC)cc1.[Cl-].[Cl-],gemini cationic,0.0009,3.04575749056068,45.9,0.00000114,1.45,26.1,3.36,0.000437,25,10.1007/s11743-013-1502-0,10.1016/j.ces.2022.118208,,10.1007/s11743-013-1502-0,10.1007/s11743-013-1502-0,,10.1007/s11743-013-1502-0,10.1007/s11743-013-1502-0,,"bis-(N-(3-undecylamido-propyl)-N,Ndimethyl)-p-phenyleneDiammoniumDichloride","InChI=1S/C42H78N4O2.2ClH/c1-7-9-11-13-15-17-19-21-23-27-41(47)43-33-25-35-45(3,4)37-39-29-31-40(32-30-39)38-46(5,6)36-26-34-44-42(48)28-24-22-20-18-16-14-12-10-8-2;;/h29-32H,7-28,33-38H2,1-6H3;2*1H",WGJNSEPDZLEGFR-UHFFFAOYSA-N,742.56583316
CCCCCCCCCCCC(=O)NCCC[N+](C)(C)Cc1ccccc1.[Cl-],cationic,0.000256,3.59176003468815,29.2,0.00000951,1.75,43.27,5.86,0.00138,25,10.1007/s11743-016-1795-x,10.1016/j.ces.2022.118208,,10.1007/s11743-016-1795-x,10.1007/s11743-016-1795-x,10.1007/s11743-016-1795-x,10.1007/s11743-016-1795-x,10.1007/s11743-016-1795-x,,N-(3-(dimethylbenzylammonium)propyl)lauramidechloride,"InChI=1S/C24H42N2O.ClH/c1-4-5-6-7-8-9-10-11-15-19-24(27)25-20-16-21-26(2,3)22-23-17-13-12-14-18-23;/h12-14,17-18H,4-11,15-16,19-22H2,1-3H3;1H",JOMDPISNBYPGIK-UHFFFAOYSA-N,410.306391676
CCCCCCCCCCCC(=O)NCCOCCOCCOCCO,non-ionic,,,30.5,,,,,,,,10.1016/j.ces.2022.118208,,10.1002/0471670561,,,,,,,"InChI=1S/C20H41NO5/c1-2-3-4-5-6-7-8-9-10-11-20(23)21-12-14-24-16-18-26-19-17-25-15-13-22/h22H,2-19H2,1H3,(H,21,23)",MEACLFQIPQTFFV-UHFFFAOYSA-N,375.298473412
CCCCCCCCCCCC(=O)N[N+](C)(C)CCC[N+](C)(C)NC(=O)CCCCCCCCCCC.[Br-].[Br-],gemini cationic,0.00234,2.63078414258986,34,0.00000202,0.82,38,3.15,0.000708,25,10.5650/jos.59.647,10.1016/j.ces.2022.118208,,10.5650/jos.59.647,10.5650/jos.59.647,,10.5650/jos.59.647,,,"1,3-bis(N'-undecyl-N,N-dimethylhydrazinium)propanedibromide","InChI=1S/C31H64N4O2.2BrH/c1-7-9-11-13-15-17-19-21-23-26-30(36)32-34(3,4)28-25-29-35(5,6)33-31(37)27-24-22-20-18-16-14-12-10-8-2;;/h7-29H2,1-6H3;2*1H",DERXHMKMKSASLN-UHFFFAOYSA-N,684.355251552
CCCCCCCCCCCC(=O)OC(C)C(=O)NCCCN(C)C,non-ionic,,,27.8,,,,,,,,10.1016/j.ces.2022.118208,,10.1007/s11743-000-0142-z,,,,,,,"InChI=1S/C20H40N2O3/c1-5-6-7-8-9-10-11-12-13-15-19(23)25-18(2)20(24)21-16-14-17-22(3)4/h18H,5-17H2,1-4H3,(H,21,24)",XPPYGQXGJSKKKZ-UHFFFAOYSA-N,356.30389314
CCCCCCCCCCCC(=O)OC(C)C(=O)NCCC[N+](C)(C)C.COS(=O)(=O)[O-],zwitterionic,,,24.2,,,,,,,,10.1016/j.ces.2022.118208,,10.1007/s11743-000-0142-z,,,,,,,"InChI=1S/C21H42N2O3.CH4O4S/c1-6-7-8-9-10-11-12-13-14-16-20(24)26-19(2)21(25)22-17-15-18-23(3,4)5;1-5-6(2,3)4/h19H,6-18H2,1-5H3;1H3,(H,2,3,4)",DDEYDFZHVNWQLG-UHFFFAOYSA-N,482.302572812
CCCCCCCCCCCC(=O)OCC(C)[N+](C)(C)CC(O)CN(CCCCC)CC(O)C[N+](C)(C)C(C)COC(=O)CCCCCCCCCCC.[Cl-].[Cl-],gemini cationic,0.00006281,4.20197120659593,,,,,,,25,10.1063/5.0051623,,10.1002/9781119075691.ch43,,,,,,,,"InChI=1S/C45H93N3O6.2ClH/c1-10-13-16-18-20-22-24-26-28-31-44(51)53-38-40(4)47(6,7)36-42(49)34-46(33-30-15-12-3)35-43(50)37-48(8,9)41(5)39-54-45(52)32-29-27-25-23-21-19-17-14-11-2;;/h40-43,49-50H,10-39H2,1-9H3;2*1H/q+2;;/p-2",CJPFAIJLBUICAR-UHFFFAOYSA-L,841.644143056
CCCCCCCCCCCC(=O)OCC(C)[N+](C)(C)CC(O)CN(CCCCCC)CC(O)C[N+](C)(C)C(C)COC(=O)CCCCCCCCCCC.[Cl-].[Cl-],gemini cationic,0.00005916,4.22797183467515,,,,,,,25,10.1063/5.0051623,,10.1002/9781119075691.ch43,,,,,,,,"InChI=1S/C46H95N3O6.2ClH/c1-10-13-16-19-21-23-25-27-29-32-45(52)54-39-41(4)48(6,7)37-43(50)35-47(34-31-18-15-12-3)36-44(51)38-49(8,9)42(5)40-55-46(53)33-30-28-26-24-22-20-17-14-11-2;;/h41-44,50-51H,10-40H2,1-9H3;2*1H/q+2;;/p-2",XQMPZARNDVRHFO-UHFFFAOYSA-L,855.65979312
CCCCCCCCCCCC(=O)OCC(C)[N+](C)(C)CC(O)CN(CCCCCCCC)CC(O)C[N+](C)(C)C(C)COC(=O)CCCCCCCCCCC.[Cl-].[Cl-],gemini cationic,0.00005408,4.26696331706642,,,,,,,25,10.1063/5.0051623,,10.1002/9781119075691.ch43,,,,,,,,"InChI=1S/C48H99N3O6.2ClH/c1-10-13-16-19-22-24-26-28-31-34-47(54)56-41-43(4)50(6,7)39-45(52)37-49(36-33-30-21-18-15-12-3)38-46(53)40-51(8,9)44(5)42-57-48(55)35-32-29-27-25-23-20-17-14-11-2;;/h43-46,52-53H,10-42H2,1-9H3;2*1H/q+2;;/p-2",UADOJWOIXYHEFY-UHFFFAOYSA-L,883.691093248
CCCCCCCCCCCC(=O)OCC(COC(=O)CCCCCCCCCCC)(C[n+]1ccn(C)c1)C[n+]1ccn(C)c1.[Br-].[Br-],gemini cationic,0.0002588,3.58703572800334,,,,,,,25,10.1063/5.0051623,,,,,,,,,,"InChI=1S/C37H66N4O4.2BrH/c1-5-7-9-11-13-15-17-19-21-23-35(42)44-31-37(29-40-27-25-38(3)33-40,30-41-28-26-39(4)34-41)32-45-36(43)24-22-20-18-16-14-12-10-8-6-2;;/h25-28,33-34H,5-24,29-32H2,1-4H3;2*1H/q+2;;/p-2",NGWDHCOXHUEPCP-UHFFFAOYSA-L,788.345080792
CCCCCCCCCCCC(=O)OCC(O)CN(CCCCC([N+])C(=O)OC)CC(O)CO.[Cl-],cationic,,,33,,,,,,,,10.1016/j.ces.2022.118208,,10.1021/la901675p,,,,,,,"InChI=1S/C25H48N2O7.ClH/c1-3-4-5-6-7-8-9-10-11-15-24(31)34-20-22(30)18-27(17-21(29)19-28)16-13-12-14-23(26)25(32)33-2;/h21-23,28-30H,3-20H2,1-2H3;1H/q+1;/p-1",UJCPFVGVVGITSK-UHFFFAOYSA-M,523.315004556
CCCCCCCCCCCC(=O)OCC(O)CN(CCCCC([N+])C(=O)OC)CC(O)COC(=O)CCCCCCCCCCC.[Cl-],cationic,,,24.5,,,,,,,,10.1016/j.ces.2022.118208,,10.1021/la901675p,,,,,,,"InChI=1S/C37H70N2O8.ClH/c1-4-6-8-10-12-14-16-18-20-25-35(42)46-30-32(40)28-39(27-23-22-24-34(38)37(44)45-3)29-33(41)31-47-36(43)26-21-19-17-15-13-11-9-7-5-2;/h32-34,40-41H,4-31H2,1-3H3;1H/q+1;/p-1",XFAFXQPODHNXGH-UHFFFAOYSA-M,705.48206988
CCCCCCCCCCCC(=O)OCC1OC(OCCC[N+](C)(C)C)C(O)C(O)C1O.[I-],cationic,,,29.6,,,,,,,,10.1016/j.ces.2022.118208,,10.1007/s11743-998-0005-7,,,,,,,"InChI=1S/C24H48NO7.HI/c1-5-6-7-8-9-10-11-12-13-15-20(26)31-18-19-21(27)22(28)23(29)24(32-19)30-17-14-16-25(2,3)4;/h19,21-24,27-29H,5-18H2,1-4H3;1H/q+1;/p-1",XWXUJFFFWGVXDW-UHFFFAOYSA-M,589.247550876
CCCCCCCCCCCC(=O)OCCC(CO)COC(CO)COC(CO)COC(CO)CO,non-ionic,0.00003963,4.40197592766581,,,,,,,25,10.1021/ie4016232,,,,,,,,,,"InChI=1S/C26H52O10/c1-2-3-4-5-6-7-8-9-10-11-26(32)33-13-12-22(14-27)19-34-24(17-30)21-36-25(18-31)20-35-23(15-28)16-29/h22-25,27-31H,2-21H2,1H3",HQPUITIKEWOAIL-UHFFFAOYSA-N,524.356047864
CCCCCCCCCCCC(=O)OCCC(CO)COC(CO)COC(CO)COC(CO)COC(CO)COC(CO)CO,non-ionic,0.00003581,4.4459956789881,,,,,,,25,10.1021/ie4016232,,,,,,,,,,"InChI=1S/C32H64O14/c1-2-3-4-5-6-7-8-9-10-11-32(40)41-13-12-26(14-33)21-42-28(17-36)23-44-30(19-38)25-46-31(20-39)24-45-29(18-37)22-43-27(15-34)16-35/h26-31,33-39H,2-25H2,1H3",UGUKTQUQAYGIAH-UHFFFAOYSA-N,672.429606728
CCCCCCCCCCCC(=O)OCCC(CO)COC(CO)COC(CO)COC(CO)COC(CO)COC(CO)COC(CO)COC(CO)COC(CO)COC(CO)CO,non-ionic,0.00002825,4.54898154784454,,,,,,,25,10.1021/ie4016232,,,,,,,,,,"InChI=1S/C44H88O22/c1-2-3-4-5-6-7-8-9-10-11-44(56)57-13-12-34(14-45)25-58-36(17-48)27-60-38(19-50)29-62-40(21-52)31-64-42(23-54)33-66-43(24-55)32-65-41(22-53)30-63-39(20-51)28-61-37(18-49)26-59-35(15-46)16-47/h34-43,45-55H,2-33H2,1H3",VJJSIXSSKKZKHS-UHFFFAOYSA-N,968.576724456
CCCCCCCCCCCC(=O)OCCC[N+](C)(C)CC(O)CN(CCCC)CC(O)C[N+](C)(C)CCCOC(=O)CCCCCCCCCCC.[Cl-].[Cl-],gemini cationic,0.000447,3.34969247686806,37,0.00000118,1.83,36.3,5.61,0.00000245,25,10.1007/s11743-015-1749-8,10.1016/j.ces.2022.118208,,10.1007/s11743-015-1749-8,10.1007/s11743-015-1749-8,10.1007/s11743-015-1749-8,10.1007/s11743-015-1749-8,10.1007/s11743-015-1749-8,,bis{2-hydroxy-3-[3-(dodecanoyloxy)propyldimethylammonio]propyl}butylaminedichloride,"InChI=1S/C44H91N3O6.2ClH/c1-8-11-14-16-18-20-22-24-26-30-43(50)52-35-28-33-46(4,5)39-41(48)37-45(32-13-10-3)38-42(49)40-47(6,7)34-29-36-53-44(51)31-27-25-23-21-19-17-15-12-9-2;;/h41-42,48-49H,8-40H2,1-7H3;2*1H/q+2;;/p-2",CPRNOCGIPNSTPY-UHFFFAOYSA-L,827.628492992
CCCCCCCCCCCC(=O)OCCC[N+](C)(C)CC(O)CN(CCCCC)CC(O)C[N+](C)(C)CCCOC(=O)CCCCCCCCCCC.[Cl-].[Cl-],gemini cationic,0.00015,3.82390874094432,35,0.00000109,1.75,34.3,6.2,0.000000631,25,10.1007/s11743-015-1749-8,10.1016/j.ces.2022.118208,10.1002/9781119075691.ch43,10.1007/s11743-015-1749-8,10.1007/s11743-015-1749-8,10.1007/s11743-015-1749-8,10.1007/s11743-015-1749-8,10.1007/s11743-015-1749-8,,bis{2-hydroxy-3-[3-(dodecanoyloxy)propyldimethylammonio]propyl}pentylaminedichloride,"InChI=1S/C45H93N3O6.2ClH/c1-8-11-14-16-18-20-22-24-26-31-44(51)53-36-29-34-47(4,5)40-42(49)38-46(33-28-13-10-3)39-43(50)41-48(6,7)35-30-37-54-45(52)32-27-25-23-21-19-17-15-12-9-2;;/h42-43,49-50H,8-41H2,1-7H3;2*1H/q+2;;/p-2",RFCIXCNPDBNMJM-UHFFFAOYSA-L,841.644143056
CCCCCCCCCCCC(=O)OCCC[N+](C)(C)CC(O)CN(CCCCCC)CC(O)C[N+](C)(C)CCCOC(=O)CCCCCCCCCCC.[Cl-].[Cl-],gemini cationic,0.0000447,4.34969247686806,38,0.000000945,1.51,37.3,5.83,0.00000148,25,10.1007/s11743-015-1749-8,10.1016/j.ces.2022.118208,10.1002/9781119075691.ch43,10.1007/s11743-015-1749-8,10.1007/s11743-015-1749-8,10.1007/s11743-015-1749-8,10.1007/s11743-015-1749-8,10.1007/s11743-015-1749-8,,bis{2-hydroxy-3-[3-(dodecanoyloxy)propyldimethylammonio]propyl}hexylaminedichloride,"InChI=1S/C46H95N3O6.2ClH/c1-8-11-14-17-19-21-23-25-27-32-45(52)54-37-30-35-48(4,5)41-43(50)39-47(34-29-16-13-10-3)40-44(51)42-49(6,7)36-31-38-55-46(53)33-28-26-24-22-20-18-15-12-9-2;;/h43-44,50-51H,8-42H2,1-7H3;2*1H/q+2;;/p-2",MRMJEHSNYSZTTD-UHFFFAOYSA-L,855.65979312
CCCCCCCCCCCC(=O)OCCC[N+](C)(C)CC(O)CN(CCCCCCCC)CC(O)C[N+](C)(C)CCCOC(=O)CCCCCCCCCCC.[Cl-].[Cl-],gemini cationic,0.0000178,4.74957999769111,36,0.000000906,1.4,35.3,6.3,0.000000501,25,10.1007/s11743-015-1749-8,10.1016/j.ces.2022.118208,10.1002/9781119075691.ch43,10.1007/s11743-015-1749-8,10.1007/s11743-015-1749-8,10.1007/s11743-015-1749-8,10.1007/s11743-015-1749-8,10.1007/s11743-015-1749-8,,bis{2-hydroxy-3-[3-(dodecanoyloxy)propyldimethylammonio]propyl}octylaminedichloride,"InChI=1S/C48H99N3O6.2ClH/c1-8-11-14-17-20-22-24-26-29-34-47(54)56-39-32-37-50(4,5)43-45(52)41-49(36-31-28-19-16-13-10-3)42-46(53)44-51(6,7)38-33-40-57-48(55)35-30-27-25-23-21-18-15-12-9-2;;/h45-46,52-53H,8-44H2,1-7H3;2*1H/q+2;;/p-2",LFPSBMPKDRONDV-UHFFFAOYSA-L,883.691093248
CCCCCCCCCCCC(=O)OCCOCC(OCCO)C1OCC(OCCO)C1OCCO,non-ionic,0.000023,4.63827216398241,,,,,,,24.85,10.1007/s11743-001-0184-2,,,,,,,,,POE(20) sorbitan monolaurate,"InChI=1S/C26H50O10/c1-2-3-4-5-6-7-8-9-10-11-24(30)34-19-18-31-20-22(32-15-12-27)26-25(35-17-14-29)23(21-36-26)33-16-13-28/h22-23,25-29H,2-21H2,1H3",HMFKFHLTUCJZJO-UHFFFAOYSA-N,522.3403978
CCCCCCCCCCCC(=O)OCC[N+](C)(C)CC(O)C[N+](C)(C)CCOC(=O)CCCCCCC.[Cl-].[Cl-],gemini cationic,,,30.4,,,,,,,,10.1016/j.ces.2022.118208,,10.1007/s11743-010-1207-6,,,,,,,"InChI=1S/C31H64N2O5.2ClH/c1-7-9-11-13-14-15-16-18-20-22-31(36)38-26-24-33(5,6)28-29(34)27-32(3,4)23-25-37-30(35)21-19-17-12-10-8-2;;/h29,34H,7-28H2,1-6H3;2*1H/q+2;;/p-2",PUAIJVNUAWMRAB-UHFFFAOYSA-L,614.419228508
CCCCCCCCCCCC(=O)OCC[N+](C)(C)CC(O)C[N+](C)(C)CCOC(=O)CCCCCCCCC.[Cl-].[Cl-],gemini cationic,,,36.2,,,,,,,,10.1016/j.ces.2022.118208,,10.1007/s11743-010-1207-6,,,,,,,"InChI=1S/C33H68N2O5.2ClH/c1-7-9-11-13-15-16-18-20-22-24-33(38)40-28-26-35(5,6)30-31(36)29-34(3,4)25-27-39-32(37)23-21-19-17-14-12-10-8-2;;/h31,36H,7-30H2,1-6H3;2*1H/q+2;;/p-2",DWPLCUKRAQSCEQ-UHFFFAOYSA-L,642.450528636
CCCCCCCCCCCC(=O)Oc1cccc2ccc[n+](CCCCCCCCCC)c12.[Br-],cationic,0.05,1.30102999566398,36,0.000000692,2.4,36,3,0.001,25,10.1080/01932691.2012.683979,10.1016/j.ces.2022.118208,,10.1080/01932691.2012.683979,10.1080/01932691.2012.683979,10.1080/01932691.2012.683979,10.1080/01932691.2012.683979,,10.1080/01932691.2012.683979,,"InChI=1S/C31H50NO2.BrH/c1-3-5-7-9-11-13-14-16-18-25-30(33)34-29-24-20-22-28-23-21-27-32(31(28)29)26-19-17-15-12-10-8-6-4-2;/h20-24,27H,3-19,25-26H2,1-2H3;1H/q+1;/p-1",VWCOOZVMCVIVNP-UHFFFAOYSA-M,547.30249194
CCCCCCCCCCCC(=O)Oc1cccc2ccc[n+](CCCCCCCCCC[n+]3cccc4cccc(OC(=O)CCCCCCCCCCC)c43)c12.[Br-].[Br-],gemini cationic,0.01,2,43,0.000000367,4.52,29,3.52287874528034,0.0003,25,10.1080/01932691.2012.683979,10.1016/j.ces.2022.118208,,10.1080/01932691.2012.683979,10.1080/01932691.2012.683979,10.1080/01932691.2012.683979,10.1080/01932691.2012.683979,,10.1080/01932691.2012.683979,,"InChI=1S/C52H78N2O4.2BrH/c1-3-5-7-9-11-13-17-21-25-39-49(55)57-47-37-29-33-45-35-31-43-53(51(45)47)41-27-23-19-15-16-20-24-28-42-54-44-32-36-46-34-30-38-48(52(46)54)58-50(56)40-26-22-18-14-12-10-8-6-4-2;;/h29-38,43-44H,3-28,39-42H2,1-2H3;2*1H/q+2;;/p-2",AKSDQAAPTWVHCQ-UHFFFAOYSA-L,952.432833176
CCCCCCCCCCCC(=O)Oc1cccc2ccc[n+](CCCCCC[n+]3cccc4cccc(OC(=O)CCCCCCCCCCC)c43)c12.[Br-].[Br-],gemini cationic,0.02,1.69897000433602,41,0.000000388,4.28,31,3.49485002168009,0.00032,25,10.1080/01932691.2012.683979,10.1016/j.ces.2022.118208,,10.1080/01932691.2012.683979,10.1080/01932691.2012.683979,10.1080/01932691.2012.683979,10.1080/01932691.2012.683979,,10.1080/01932691.2012.683979,,"InChI=1S/C48H70N2O4.2BrH/c1-3-5-7-9-11-13-15-17-21-35-45(51)53-43-33-25-29-41-31-27-39-49(47(41)43)37-23-19-20-24-38-50-40-28-32-42-30-26-34-44(48(42)50)54-46(52)36-22-18-16-14-12-10-8-6-4-2;;/h25-34,39-40H,3-24,35-38H2,1-2H3;2*1H/q+2;;/p-2",RSTQBHWAZBIQTM-UHFFFAOYSA-L,896.37023292
CCCCCCCCCCCC(C)OS(=O)(=O)[O-].[Na+],anionic,0.001524,2.81701503299642,,,,,,,25,10.1021/ci600462d,,10.1016/j.theochem.2004.08.039,,,,,,,sodium-tridecan-2-yl-sulfat,"InChI=1S/C13H28O4S.Na/c1-3-4-5-6-7-8-9-10-11-12-13(2)17-18(14,15)16;/h13H,3-12H2,1-2H3,(H,14,15,16);/q;+1/p-1",JPXHGXMEEDUVAJ-UHFFFAOYSA-M,302.152774624
CCCCCCCCCCCC(C)[N+](C)(C)CCCCCCCCCCCC[N+](C)(C)C(C)CCCCCCCCCCC.[Br-].[Br-],gemini cationic,,,41.4,,,,,,,,10.1016/j.ces.2022.118208,,10.3390/molecules24234380,,,,,,,"InChI=1S/C42H90N2.2BrH/c1-9-11-13-15-17-21-25-29-33-37-41(3)43(5,6)39-35-31-27-23-19-20-24-28-32-36-40-44(7,8)42(4)38-34-30-26-22-18-16-14-12-10-2;;/h41-42H,9-40H2,1-8H3;2*1H/q+2;;/p-2",OJCZGAWIRFLDRE-UHFFFAOYSA-L,780.54707508
CCCCCCCCCCCC(C)[N+](C)(C)CCCCCCCCCC[N+](C)(C)C(C)CCCCCCCCCCC.[Br-].[Br-],gemini cationic,,,43.3,,,,,,,,10.1016/j.ces.2022.118208,,10.3390/molecules24234380,,,,,,,"InChI=1S/C40H86N2.2BrH/c1-9-11-13-15-17-19-23-27-31-35-39(3)41(5,6)37-33-29-25-21-22-26-30-34-38-42(7,8)40(4)36-32-28-24-20-18-16-14-12-10-2;;/h39-40H,9-38H2,1-8H3;2*1H/q+2;;/p-2",GIKOMTAHCHFQIM-UHFFFAOYSA-L,752.515774952
CCCCCCCCCCCC(C)[N+](C)(C)CCCCCCCC[N+](C)(C)C(C)CCCCCCCCCCC.[Br-].[Br-],gemini cationic,,,43.3,,,,,,,,10.1016/j.ces.2022.118208,,10.3390/molecules24234380,,,,,,,"InChI=1S/C38H82N2.2BrH/c1-9-11-13-15-17-19-21-25-29-33-37(3)39(5,6)35-31-27-23-24-28-32-36-40(7,8)38(4)34-30-26-22-20-18-16-14-12-10-2;;/h37-38H,9-36H2,1-8H3;2*1H/q+2;;/p-2",XLFKPBZNRILOHL-UHFFFAOYSA-L,724.484474824
CCCCCCCCCCCC(C)[N+](C)(C)CCCCCC[N+](C)(C)C(C)CCCCCCCCCCC.[Br-].[Br-],gemini cationic,,,40.8,,,,,,,,10.1016/j.ces.2022.118208,,10.3390/molecules24234380,,,,,,,"InChI=1S/C36H78N2.2BrH/c1-9-11-13-15-17-19-21-23-27-31-35(3)37(5,6)33-29-25-26-30-34-38(7,8)36(4)32-28-24-22-20-18-16-14-12-10-2;;/h35-36H,9-34H2,1-8H3;2*1H/q+2;;/p-2",TWVYUXQCDOWCPM-UHFFFAOYSA-L,696.453174696
CCCCCCCCCCCC(C)[N+](C)(C)CCCCC[N+](C)(C)C(C)CCCCCCCCCCC.[Br-].[Br-],gemini cationic,,,41,,,,,,,,10.1016/j.ces.2022.118208,,10.3390/molecules24234380,,,,,,,"InChI=1S/C35H76N2.2BrH/c1-9-11-13-15-17-19-21-23-26-30-34(3)36(5,6)32-28-25-29-33-37(7,8)35(4)31-27-24-22-20-18-16-14-12-10-2;;/h34-35H,9-33H2,1-8H3;2*1H/q+2;;/p-2",KNPOWMSHJQJFDQ-UHFFFAOYSA-L,682.437524632