SMILES,Surfactant_Type,CMC,pCMC,AW_ST_CMC,Gamma_max,Area_min,Pi_CMC,pC20,C20,Temp_Celsius,Ref_CMC,Ref_AW_ST_CMC,SubRef_CMC,SubRef_AW_ST_CMC,Ref_Gamma_max,Ref_Pi_CMC,Ref_Area_min,Ref_pC20,Ref_C20,IUPAC_name,InChI,InChIKey,Molecular_Weight
CCCCCCCCCCCC[N+](C)(C)CCCCCCCCCCCC.[Br-],cationic,0.00007,4.15490195998574,25,0.0000029,0.57,46,4.97030595306658,0.00694102408224463,25,"['10.1021/acs.jpcb.1c05264', '10.1016/j.colsurfa.2010.02.004', '10.1021/acs.jpcb.1c05264', '10.1016/j.colsurfa.2010.02.004']",10.1016/j.ces.2022.118208,10.1002/9781118228920,10.1201/9780203911518,10.1016/j.colsurfa.2010.02.004,10.1016/j.colsurfa.2010.02.004,10.1016/j.colsurfa.2010.02.004,calculated,calculated,didodecyl(dimethyl)azanium-bromide,"InChI=1S/C26H56N.BrH/c1-5-7-9-11-13-15-17-19-21-23-25-27(3,4)26-24-22-20-18-16-14-12-10-8-6-2;/h5-26H2,1-4H3;1H/q+1;/p-1",XRWMGCFJVKDVMD-UHFFFAOYSA-M,461.359612892
CCCCCCCCCCCC[N+](C)(C)CCCCCCCCCCCCCCCC[N+](C)(C)CCCCCCCCCCCC.[Br-].[Br-],gemini cationic,0.0001200051820204,3.9208000000001,39.4,,,32.57,,,25,10.1016/j.chemosphere.2011.05.031,10.1016/j.ces.2022.118208,,10.1021/la00030a006,,calculated,,,,,"InChI=1S/C44H94N2.2BrH/c1-7-9-11-13-15-17-25-29-33-37-41-45(3,4)43-39-35-31-27-23-21-19-20-22-24-28-32-36-40-44-46(5,6)42-38-34-30-26-18-16-14-12-10-8-2;;/h7-44H2,1-6H3;2*1H/q+2;;/p-2",XEWRKULHAGFNOG-UHFFFAOYSA-L,808.578375208
CCCCCCCCCCCC[N+](C)(C)CCCCCCCCCCCCCC[N+](C)(C)CCCCCCCCCCCC.[Br-].[Br-],gemini cationic,0.0001999861869632,3.69900000000016,39.5,,,32.47,,,25,10.1016/j.chemosphere.2011.05.031,10.1016/j.ces.2022.118208,,10.1021/la00030a006,,calculated,,,,,"InChI=1S/C42H90N2.2BrH/c1-7-9-11-13-15-17-23-27-31-35-39-43(3,4)41-37-33-29-25-21-19-20-22-26-30-34-38-42-44(5,6)40-36-32-28-24-18-16-14-12-10-8-2;;/h7-42H2,1-6H3;2*1H/q+2;;/p-2",KPENQRATROSINK-UHFFFAOYSA-L,780.54707508
CCCCCCCCCCCC[N+](C)(C)CCCCCCCCCCCC[N+](C)(C)CCCCCCCCCCCC.[Br-].[Br-],gemini cationic,0.0003699985311728,3.43180000000007,41.5,,,30.47,,,25,10.1016/j.chemosphere.2011.05.031,10.1016/j.ces.2022.118208,,10.1021/la00030a006,,calculated,,,,,"InChI=1S/C40H86N2.2BrH/c1-7-9-11-13-15-17-21-25-29-33-37-41(3,4)39-35-31-27-23-19-20-24-28-32-36-40-42(5,6)38-34-30-26-22-18-16-14-12-10-8-2;;/h7-40H2,1-6H3;2*1H/q+2;;/p-2",DZJHWWCAQRLCQS-UHFFFAOYSA-L,752.515774952
CCCCCCCCCCCC[N+](C)(C)CCCCCCCCCC[N+](C)(C)CCCCCCCCCCCC.[Br-].[Br-],gemini cationic,0.0006299411805485,3.20070000000004,43,,,28.97,,,25,10.1016/j.chemosphere.2011.05.031,10.1016/j.ces.2022.118208,,10.1016/0927-7757(95)03383-1,,calculated,,,,,"InChI=1S/C38H82N2.2BrH/c1-7-9-11-13-15-17-19-23-27-31-35-39(3,4)37-33-29-25-21-22-26-30-34-38-40(5,6)36-32-28-24-20-18-16-14-12-10-8-2;;/h7-38H2,1-6H3;2*1H/q+2;;/p-2",ULSFSAKGZUQDKY-UHFFFAOYSA-L,724.484474824
CCCCCCCCCCCC[N+](C)(C)CCCCCCCC[N+](C)(C)CCCCCCCCCCCC.[Br-].[Br-],gemini cationic,0.0008300418697157,3.0809,42.8,,,29.17,,,25,10.1016/j.chemosphere.2011.05.031,10.1016/j.ces.2022.118208,,10.1021/la00030a006,,calculated,,,,,"InChI=1S/C36H78N2.2BrH/c1-7-9-11-13-15-17-19-21-25-29-33-37(3,4)35-31-27-23-24-28-32-36-38(5,6)34-30-26-22-20-18-16-14-12-10-8-2;;/h7-36H2,1-6H3;2*1H/q+2;;/p-2",DEUPTKRZUOPTSA-UHFFFAOYSA-L,696.453174696
CCCCCCCCCCCC[N+](C)(C)CCCCCCC[N+](C)(C)CCCCCCCCCCCC.[Br-].[Br-],gemini cationic,0.0008995,3.04599883231843,,,,,,,25,10.1063/5.0051623,,,,,,,,,dodecyl-[7-[dodecyl(dimethyl)azaniumyl]heptyl]-dimethylazanium-dibromide,"InChI=1S/C35H76N2.2BrH/c1-7-9-11-13-15-17-19-21-24-28-32-36(3,4)34-30-26-23-27-31-35-37(5,6)33-29-25-22-20-18-16-14-12-10-8-2;;/h7-35H2,1-6H3;2*1H/q+2;;/p-2",RRZYWYCODIGDBF-UHFFFAOYSA-L,682.437524632
CCCCCCCCCCCC[N+](C)(C)CCCCCC[N+](C)(C)CCCCCC.[Br-].[Br-],gemini cationic,0.01622,1.78994915012486,,,,,,,25,10.1063/5.0051623,,,,,,,,,,"InChI=1S/C28H62N2.2BrH/c1-7-9-11-13-14-15-16-17-18-22-26-30(5,6)28-24-20-19-23-27-29(3,4)25-21-12-10-8-2;;/h7-28H2,1-6H3;2*1H/q+2;;/p-2",FZTGPSHBKCPNMX-UHFFFAOYSA-L,584.327974184
CCCCCCCCCCCC[N+](C)(C)CCCCCC[N+](C)(C)CCCCCCCCCCCC.[Br-].[Br-],gemini cationic,0.0010299117193407,2.9872,30.6,0.00000189,0.88,42.2,3.78,0.00016,25,10.1016/j.chemosphere.2011.05.031,"['10.1016/j.ces.2022.118208', '10.1007/s11743-011-1269-0']",,10.1016/0927-7757(95)03383-1,10.1007/s11743-011-1269-0,10.1007/s11743-011-1269-0,10.1007/s11743-011-1269-0,10.1007/s11743-011-1269-0,10.1007/s11743-011-1269-0,dodecyl-[6-[dodecyl(dimethyl)azaniumyl]hexyl]-dimethylazanium-dibromide,"InChI=1S/C34H74N2.2BrH/c1-7-9-11-13-15-17-19-21-23-27-31-35(3,4)33-29-25-26-30-34-36(5,6)32-28-24-22-20-18-16-14-12-10-8-2;;/h7-34H2,1-6H3;2*1H/q+2;;/p-2",ZXVGCUMZUVQCMK-UHFFFAOYSA-L,668.421874568
CCCCCCCCCCCC[N+](C)(C)CCCCC[N+](C)(C)CCCCCCCCCCCC.[Br-].[Br-],gemini cationic,0.0011000185275062,2.95860000000001,40.1,0.00000166,1,31.9,3.37715706977867,0.0341443869931614,25,"['10.1016/j.chemosphere.2011.05.031', '10.1016/0021-9797(86)90417-0', '10.1016/0021-9797(86)90417-0']",10.1016/j.ces.2022.118208,,10.1016/0021-9797(86)90417-0,10.1016/0021-9797(86)90417-0,,,calculated,calculated,"N,N'-bis(undecyldimethyl)-3-methyl-1,5-pentanediammoniumdibromide","InChI=1S/C33H72N2.2BrH/c1-7-9-11-13-15-17-19-21-23-26-30-34(3,4)32-28-25-29-33-35(5,6)31-27-24-22-20-18-16-14-12-10-8-2;;/h7-33H2,1-6H3;2*1H/q+2;;/p-2",WBKKEPDHDRCIOA-UHFFFAOYSA-L,654.406224504
CCCCCCCCCCCC[N+](C)(C)CCCCNC[N+](C)(C)CCCCCCCCCCCC.[Br-].[Br-],gemini cationic,0.0011000185275062,2.95860000000001,,,,,,,25,10.1016/j.chemosphere.2011.05.031,,,,,,,,,,"InChI=1S/C33H73N3.2BrH/c1-7-9-11-13-15-17-19-21-23-26-30-35(3,4)31-28-25-29-34-33-36(5,6)32-27-24-22-20-18-16-14-12-10-8-2;;/h34H,7-33H2,1-6H3;2*1H/q+2;;/p-2",IKNZGZZUBHFWLI-UHFFFAOYSA-L,669.417123536
CCCCCCCCCCCC[N+](C)(C)CCCCO[N+](C)(C)CCCCCCCCCCCC.[Br-].[Br-],gemini cationic,0.001,3,,,,,,,25,10.1016/j.chemosphere.2011.05.031,,,,,,,,,,"InChI=1S/C32H70N2O.2BrH/c1-7-9-11-13-15-17-19-21-23-25-29-33(3,4)30-27-28-32-35-34(5,6)31-26-24-22-20-18-16-14-12-10-8-2;;/h7-32H2,1-6H3;2*1H/q+2;;/p-2",RTOGVGDTCIRCPT-UHFFFAOYSA-L,656.38548906
CCCCCCCCCCCC[N+](C)(C)CCCC[N+](C)(C)CCCCCCCCCCCC.[Br-].[Br-],gemini cationic,0.001169,2.93218548883816,38,0.00000141,0.94,34,3.59,0.00026,25,"['10.1016/j.chemosphere.2011.05.031', '10.1016/j.colsurfa.2010.02.004', '10.1016/j.colsurfa.2010.02.004']","['10.1016/j.ces.2022.118208', '10.1016/j.ces.2022.118208', '10.1007/s11743-011-1269-0']",,10.1016/j.colsurfa.2010.02.004,"['10.1016/j.colsurfa.2010.02.004', '10.1007/s11743-011-1269-0']","['10.1016/j.colsurfa.2010.02.004', '10.1007/s11743-011-1269-0']","['10.1016/j.colsurfa.2010.02.004', '10.1007/s11743-011-1269-0']",10.1007/s11743-011-1269-0,10.1007/s11743-011-1269-0,"N,N,N’,N’-tetramethyl-N,N’-di(dodecyl)-butylenediammonium","InChI=1S/C32H70N2.2BrH/c1-7-9-11-13-15-17-19-21-23-25-29-33(3,4)31-27-28-32-34(5,6)30-26-24-22-20-18-16-14-12-10-8-2;;/h7-32H2,1-6H3;2*1H/q+2;;/p-2",DFMPBRQDOSPSOT-UHFFFAOYSA-L,640.39057444
CCCCCCCCCCCC[N+](C)(C)CCCC[N+](C)(C)CCCCCCCCCCCC.[Cl-].[Cl-],gemini cationic,,,41,,,,,,,,10.1016/j.ces.2022.118208,,10.1007/s11743-001-0179-z,,,,,,,"InChI=1S/C32H70N2.2ClH/c1-7-9-11-13-15-17-19-21-23-25-29-33(3,4)31-27-28-32-34(5,6)30-26-24-22-20-18-16-14-12-10-8-2;;/h7-32H2,1-6H3;2*1H/q+2;;/p-2",MXJMJLJLXLUWRV-UHFFFAOYSA-L,552.4916056
CCCCCCCCCCCC[N+](C)(C)CCCN=Cc1ccccc1.[Br-],cationic,,,31.4,,,,,,,,10.1016/j.ces.2022.118208,,10.1016/j.ejpe.2017.05.006,,,,,,,"InChI=1S/C24H43N2.BrH/c1-4-5-6-7-8-9-10-11-12-16-21-26(2,3)22-17-20-25-23-24-18-14-13-15-19-24;/h13-15,18-19,23H,4-12,16-17,20-22H2,1-3H3;1H/q+1;/p-1",SNCHJWLOXXBYPX-UHFFFAOYSA-M,438.260961476
CCCCCCCCCCCC[N+](C)(C)CCCNC(=O)c1ccc(C(=O)NCCC[N+](C)(C)CCCCCCCCCCCC)cc1.[Br-].[Br-],gemini cationic,0.00117,2.93181413825384,36.3,0.00000148,1.12,35.7,3.57,0.000269,25,10.1007/s11743-015-1752-0,10.1016/j.ces.2022.118208,,10.1007/s11743-015-1752-0,10.1007/s11743-015-1752-0,10.1007/s11743-015-1752-0,10.1007/s11743-015-1752-0,10.1007/s11743-015-1752-0,,,"InChI=1S/C42H78N4O2.2BrH/c1-7-9-11-13-15-17-19-21-23-25-35-45(3,4)37-27-33-43-41(47)39-29-31-40(32-30-39)42(48)44-34-28-38-46(5,6)36-26-24-22-20-18-16-14-12-10-8-2;;/h29-32H,7-28,33-38H2,1-6H3;2*1H",TZEJJAVSUMEAEO-UHFFFAOYSA-N,830.464802
CCCCCCCCCCCC[N+](C)(C)CCCNC(=[N+])N(C)C.[Br-].[Br-],gemini cationic,,,31.9,,,,,,,,10.1016/j.ces.2022.118208,,10.1007/s11743-012-1417-1,,,,,,,"InChI=1S/C20H44N4.2BrH/c1-6-7-8-9-10-11-12-13-14-15-18-24(4,5)19-16-17-22-20(21)23(2)3;;/h22H,6-19H2,1-5H3;2*1H/q+2;;/p-2",IFMNAVMWNFQPOS-UHFFFAOYSA-L,498.193271608
CCCCCCCCCCCC[N+](C)(C)CCCNCCC[N+](C)(C)CCCCCCCCCCCC.[Br-].[Br-],gemini cationic,0.001169,2.93218548883816,,,,,,,25,10.1063/5.0051623,,,,,,,,,,"InChI=1S/C34H75N3.2BrH/c1-7-9-11-13-15-17-19-21-23-25-31-36(3,4)33-27-29-35-30-28-34-37(5,6)32-26-24-22-20-18-16-14-12-10-8-2;;/h35H,7-34H2,1-6H3;2*1H/q+2;;/p-2",FJANUCDSUNDRBW-UHFFFAOYSA-L,683.4327736
CCCCCCCCCCCC[N+](C)(C)CCCS(=O)(=O)[O-],zwitterionic,0.003,2.52287874528034,,,,,,,25,10.1021/acs.jpcb.1c05264,,10.1002/9781118228920,,,,,,,3-[dodecyl(dimethyl)azaniumyl]propane-1-sulfonate,"InChI=1S/C17H37NO3S/c1-4-5-6-7-8-9-10-11-12-13-15-18(2,3)16-14-17-22(19,20)21/h4-17H2,1-3H3",IZWSFJTYBVKZNK-UHFFFAOYSA-N,335.249415044
CCCCCCCCCCCC[N+](C)(C)CCC[N+](C)(C)CCCCCCCCCCCC.[Br-].[Br-],gemini cationic,0.0009399397147667,3.02690000000004,34,0.00000202,0.82,38,3.54717977556317,0.0288057639254881,25,"['10.1016/j.chemosphere.2011.05.031', '10.1016/j.colsurfa.2010.02.004', '10.1016/j.colsurfa.2010.02.004']",10.1016/j.ces.2022.118208,,10.1016/j.colsurfa.2010.02.004,10.1016/j.colsurfa.2010.02.004,10.1016/j.colsurfa.2010.02.004,10.1016/j.colsurfa.2010.02.004,calculated,calculated,"N,N,N’,N’-tetramethyl-N,N’-di(dodecyl)-propylenediammonium","InChI=1S/C31H68N2.2BrH/c1-7-9-11-13-15-17-19-21-23-25-28-32(3,4)30-27-31-33(5,6)29-26-24-22-20-18-16-14-12-10-8-2;;/h7-31H2,1-6H3;2*1H/q+2;;/p-2",NIKXONOSPUGUBT-UHFFFAOYSA-L,626.374924376
CCCCCCCCCCCC[N+](C)(C)CCN(CC[N+](C)(C)CCCCCCCCCCCC)CC[N+](C)(C)CCCCCCCCCCCC.[Br-].[Br-].[Br-],gemini cationic,0.000139,3.85698519974591,32.3,0.00000082,2.03,39.7,4.90901840039424,0.00737972871600557,25,10.1021/la301220y,10.1016/j.ces.2022.118208,,10.1021/la301220y,10.1021/la301220y,,10.1021/la301220y,calculated,calculated,"Tris(N-dodecyl-N,N-dimethyl-2-ammoniumethyl)-amineBromide","InChI=1S/C48H105N4.3BrH/c1-10-13-16-19-22-25-28-31-34-37-43-50(4,5)46-40-49(41-47-51(6,7)44-38-35-32-29-26-23-20-17-14-11-2)42-48-52(8,9)45-39-36-33-30-27-24-21-18-15-12-3;;;/h10-48H2,1-9H3;3*1H/q+3;;;/p-3",DGHGBRPWWZYGNY-UHFFFAOYSA-K,974.58893566
CCCCCCCCCCCC[N+](C)(C)CCN=Cc1ccc(OC)c(OC)c1.[Br-],cationic,0.000468,3.32975414692588,32.8,0.00000099,1.68,38.97,4.93,0.0000117,25,10.1002/jsde.12318,10.1016/j.ces.2022.118208,,10.1002/jsde.12318,10.1002/jsde.12318,10.1002/jsde.12318,10.1002/jsde.12318,,10.1002/jsde.12318,"N-(2-((3,4-dimethoxybenzylidene)amino)ethyl)-N,N-dimethyldodectan-1-aminiumbromide","InChI=1S/C25H45N2O2.BrH/c1-6-7-8-9-10-11-12-13-14-15-19-27(2,3)20-18-26-22-23-16-17-24(28-4)25(21-23)29-5;/h16-17,21-22H,6-15,18-20H2,1-5H3;1H/q+1;/p-1",SELTWDLWLMMIHH-UHFFFAOYSA-M,484.26644078
CCCCCCCCCCCC[N+](C)(C)CCNC(=O)CCN(CCC(=O)NCC[N+](C)(C)CCCCCCCCCCCC)CCN(CCC(=O)NCC[N+](C)(C)CCCCCCCCCCCC)CCC(=O)NCC[N+](C)(C)CCCCCCCCCCCC.[Br-].[Br-].[Br-].[Br-],gemini cationic,,,47.6,,,,,,,,10.1016/j.ces.2022.118208,,10.1021/la903672r,,,,,,,"InChI=1S/C78H160N10O4.4BrH/c1-13-17-21-25-29-33-37-41-45-49-67-85(5,6)71-57-79-75(89)53-61-83(62-54-76(90)80-58-72-86(7,8)68-50-46-42-38-34-30-26-22-18-14-2)65-66-84(63-55-77(91)81-59-73-87(9,10)69-51-47-43-39-35-31-27-23-19-15-3)64-56-78(92)82-60-74-88(11,12)70-52-48-44-40-36-32-28-24-20-16-4;;;;/h13-74H2,1-12H3;4*1H",BIUIIKZKKFNOIB-UHFFFAOYSA-N,1620.967052128
CCCCCCCCCCCC[N+](C)(C)CCO.[Br-],cationic,,,32.4,,,,,,,,10.1016/j.ces.2022.118208,,10.1016/j.colsurfa.2016.08.020,,,,,,,"InChI=1S/C16H36NO.BrH/c1-4-5-6-7-8-9-10-11-12-13-14-17(2,3)15-16-18;/h18H,4-16H2,1-3H3;1H/q+1;/p-1",QBQLPWLODYZCLE-UHFFFAOYSA-M,337.198026872
CCCCCCCCCCCC[N+](C)(C)CCOC(=O)C(=O)OCC[N+](C)(C)CCCCCCCCCCCC.[Br-].[Br-],gemini cationic,,,24.9,,,,,,,,10.1016/j.ces.2022.118208,,10.1016/j.molliq.2015.06.051,,,,,,,"InChI=1S/C34H70N2O4.2BrH/c1-7-9-11-13-15-17-19-21-23-25-27-35(3,4)29-31-39-33(37)34(38)40-32-30-36(5,6)28-26-24-22-20-18-16-14-12-10-8-2;;/h7-32H2,1-6H3;2*1H/q+2;;/p-2",KYZVOMSBHXMCGH-UHFFFAOYSA-L,728.37023292
CCCCCCCCCCCC[N+](C)(C)CCOC(=O)CCC(=O)OCC[N+](C)(C)CCCCCCCCCCCC.[Br-].[Br-],gemini cationic,0.00054,3.26760624017703,37.8,0.00000141,1.17,34.2,3.83,0.000148,25,10.1016/j.jcis.2012.04.052,10.1016/j.ces.2022.118208,,10.1016/j.jcis.2012.04.052,10.1016/j.jcis.2012.04.052,,10.1016/j.jcis.2012.04.052,10.1016/j.jcis.2012.04.052,,"1-dodecanaminium,N,N0-[(1,4-dioxo-1,4-butanediyl)bis(oxy-2,1-ethanediyl)]bis[N,N-dimethyl-,bromide]","InChI=1S/C36H74N2O4.2BrH/c1-7-9-11-13-15-17-19-21-23-25-29-37(3,4)31-33-41-35(39)27-28-36(40)42-34-32-38(5,6)30-26-24-22-20-18-16-14-12-10-8-2;;/h7-34H2,1-6H3;2*1H/q+2;;/p-2",FFMACZJYFKYIGP-UHFFFAOYSA-L,756.401533048
CCCCCCCCCCCC[N+](C)(C)CCOC(=O)CCC(=O)OCC[N+](C)(C)CCCCCCCCCCCC.[Cl-].[Cl-],gemini cationic,,,34.9,,,,,,,,10.1016/j.ces.2022.118208,,10.1016/j.molliq.2017.01.056,,,,,,,"InChI=1S/C36H74N2O4.2ClH/c1-7-9-11-13-15-17-19-21-23-25-29-37(3,4)31-33-41-35(39)27-28-36(40)42-34-32-38(5,6)30-26-24-22-20-18-16-14-12-10-8-2;;/h7-34H2,1-6H3;2*1H/q+2;;/p-2",SFPALNIOUKXDHT-UHFFFAOYSA-L,668.502564208
CCCCCCCCCCCC[N+](C)(C)CCOC(=O)CCCCCCC(=O)OCC[N+](C)(C)CCCCCCCCCCCC.[Cl-].[Cl-],gemini cationic,,,39.2,,,,,,,,10.1016/j.ces.2022.118208,,10.1016/j.molliq.2017.01.056,,,,,,,"InChI=1S/C40H82N2O4.2ClH/c1-7-9-11-13-15-17-19-21-25-29-33-41(3,4)35-37-45-39(43)31-27-23-24-28-32-40(44)46-38-36-42(5,6)34-30-26-22-20-18-16-14-12-10-8-2;;/h7-38H2,1-6H3;2*1H/q+2;;/p-2",VTCIBORSOWVJNB-UHFFFAOYSA-L,724.565164464
CCCCCCCCCCCC[N+](C)(C)CCOC(=O)C[N+](C)(C)CCCCCCCCCCCC.[Br-].[Br-],gemini cationic,,,30.8,,,,,,,,10.1016/j.ces.2022.118208,,10.1016/j.colsurfa.2016.08.020,,,,,,,"InChI=1S/C32H68N2O2.2BrH/c1-7-9-11-13-15-17-19-21-23-25-27-33(3,4)29-30-36-32(35)31-34(5,6)28-26-24-22-20-18-16-14-12-10-8-2;;/h7-31H2,1-6H3;2*1H/q+2;;/p-2",DFDHBGDKZHGXTJ-UHFFFAOYSA-L,670.364753616
CCCCCCCCCCCC[N+](C)(C)CCOC(C)=O.[Br-],cationic,0.01189,1.92481814538131,37.3,0.00000201,0.83,34.7,2.9,0.00126,25,10.1016/j.jcis.2012.04.052,10.1016/j.ces.2022.118208,,10.1016/j.jcis.2012.04.052,10.1016/j.jcis.2012.04.052,,10.1016/j.jcis.2012.04.052,10.1016/j.jcis.2012.04.052,,"1-dodecanaminium,N-[2-(acetyloxy)ethyl]-N,Ndimethyl-,bromide","InChI=1S/C18H38NO2.BrH/c1-5-6-7-8-9-10-11-12-13-14-15-19(3,4)16-17-21-18(2)20;/h5-17H2,1-4H3;1H/q+1;/p-1",SZBFSSRGLABQDL-UHFFFAOYSA-M,379.208591556
CCCCCCCCCCCC[N+](C)(C)CCOC1OC(CO)C(O)C(O)C1O.[Br-],cationic,0.00282,2.54975089168064,39,0.00000128,1.3,33,3.41,0.000386,25,10.1021/jo051579s,10.1016/j.ces.2022.118208,,10.1021/jo051579s,,,10.1021/jo051579s,10.1021/jo051579s,,"2-octyldimethylamine-(2,3,4,6-tetra-O-hydroxy)-β-D--glucopyranosidebromide","InChI=1S/C22H46NO6.BrH/c1-4-5-6-7-8-9-10-11-12-13-14-23(2,3)15-16-28-22-21(27)20(26)19(25)18(17-24)29-22;/h18-22,24-27H,4-17H2,1-3H3;1H/q+1;/p-1",HCVNRVJCRLZQJX-UHFFFAOYSA-M,499.250850292
CCCCCCCCCCCC[N+](C)(C)CCOC1OC(COC)C(OC)C(OC)C1OC.[Br-],cationic,0.00263,2.58004425151024,37,0.000000902,1.84,35,4.06,0.0000868,25,10.1021/jo051579s,10.1016/j.ces.2022.118208,,10.1021/jo051579s,,,10.1021/jo051579s,10.1021/jo051579s,,"2-octyldimethylamine-(2,3,4,6-tetra-O-acetyl)-β-D--glucopyranosidebromide","InChI=1S/C26H54NO6.BrH/c1-8-9-10-11-12-13-14-15-16-17-18-27(2,3)19-20-32-26-25(31-7)24(30-6)23(29-5)22(33-26)21-28-4;/h22-26H,8-21H2,1-7H3;1H/q+1;/p-1",ASYHJZVXXJLPRW-UHFFFAOYSA-M,555.313450548
CCCCCCCCCCCC[N+](C)(C)CCOCCO.[Br-],cationic,0.003981,2.4000078224159,35,0.00000082,2.08,36.83,3.2,0.000631,25,10.1016/j.molliq.2016.05.088,10.1016/j.ces.2022.118208,,10.1016/j.molliq.2016.05.088,10.1016/j.molliq.2016.05.088,10.1016/j.molliq.2016.05.088,10.1016/j.molliq.2016.05.088,,10.1016/j.molliq.2016.05.088,"N-(2-(2-hydroxyethoxy)ethyl)-N,N-dimethyloctan-1-aminiumbromide","InChI=1S/C18H40NO2.BrH/c1-4-5-6-7-8-9-10-11-12-13-14-19(2,3)15-17-21-18-16-20;/h20H,4-18H2,1-3H3;1H/q+1;/p-1",RPXXVDHQEDNVCG-UHFFFAOYSA-M,381.22424162
CCCCCCCCCCCC[N+](C)(C)CCOCCOCCOCCOCCOCC[N+](C)(C)CCCCCCCCCCCC.[Br-].[Br-],gemini cationic,0.0012299855235704,2.91010000000003,,,,,,,25,10.1016/j.chemosphere.2011.05.031,,,,,,,,,,"InChI=1S/C40H86N2O5.2BrH/c1-7-9-11-13-15-17-19-21-23-25-27-41(3,4)29-31-43-33-35-45-37-39-47-40-38-46-36-34-44-32-30-42(5,6)28-26-24-22-20-18-16-14-12-10-8-2;;/h7-40H2,1-6H3;2*1H/q+2;;/p-2",BXYICWTXAMXQST-UHFFFAOYSA-L,832.490348052
CCCCCCCCCCCC[N+](C)(C)CCOCCOCCOCCOCC[N+](C)(C)CCCCCCCCCCCC.[Br-].[Br-],gemini cationic,0.00089991191087,3.04580000000003,,,,,,,25,10.1016/j.chemosphere.2011.05.031,,,,,,,,,,"InChI=1S/C38H82N2O4.2BrH/c1-7-9-11-13-15-17-19-21-23-25-27-39(3,4)29-31-41-33-35-43-37-38-44-36-34-42-32-30-40(5,6)28-26-24-22-20-18-16-14-12-10-8-2;;/h7-38H2,1-6H3;2*1H/q+2;;/p-2",BKNZEDAJACYOSP-UHFFFAOYSA-L,788.464133304
CCCCCCCCCCCC[N+](C)(C)CCOCCOCCOCC[N+](C)(C)CCCCCCCCCCCC.[Br-].[Br-],gemini cationic,0.0008600030668888,3.06550000000003,,,,,,,25,10.1016/j.chemosphere.2011.05.031,,,,,,,,,,"InChI=1S/C36H78N2O3.2BrH/c1-7-9-11-13-15-17-19-21-23-25-27-37(3,4)29-31-39-33-35-41-36-34-40-32-30-38(5,6)28-26-24-22-20-18-16-14-12-10-8-2;;/h7-36H2,1-6H3;2*1H/q+2;;/p-2",PLEPUCIAYUNNDO-UHFFFAOYSA-L,744.437918556
CCCCCCCCCCCC[N+](C)(C)CCOCCOCC[N+](C)(C)CCCCCCCCCCCC.[Br-].[Br-],gemini cationic,0.0009200257866482,3.03620000000002,,,,,,,25,10.1016/j.chemosphere.2011.05.031,,,,,,,,,,"InChI=1S/C34H74N2O2.2BrH/c1-7-9-11-13-15-17-19-21-23-25-27-35(3,4)29-31-37-33-34-38-32-30-36(5,6)28-26-24-22-20-18-16-14-12-10-8-2;;/h7-34H2,1-6H3;2*1H/q+2;;/p-2",RQPWQGOPYTWRNF-UHFFFAOYSA-L,700.411703808
CCCCCCCCCCCC[N+](C)(C)CCOCC[N+](C)(C)CCCCCCCCCCCC.[Br-].[Br-],gemini cationic,0.00052,3.2839966563652,40,0.00000097,5.2,32,4,0.0001,25,"['10.1016/j.crci.2019.04.002', '10.1021/la9904096', '10.1021/la9904096']",10.1016/j.ces.2022.118208,,10.1021/la9904096,10.1021/la9904096,,10.1021/la9904096,10.1021/la9904096,,"ether-α,ω-bis-(dimethyldodecylammoniumbromide)","InChI=1S/C32H70N2O.2BrH/c1-7-9-11-13-15-17-19-21-23-25-27-33(3,4)29-31-35-32-30-34(5,6)28-26-24-22-20-18-16-14-12-10-8-2;;/h7-32H2,1-6H3;2*1H/q+2;;/p-2",QDIFWFLBBKJFOX-UHFFFAOYSA-L,656.38548906
CCCCCCCCCCCC[N+](C)(C)CCOP(=O)([O-])OCCCCCCCC,gemini zwitterionic,1.39990962656834E-05,4.8539,,,,,,,25,10.1016/j.chemosphere.2011.05.031,,,,,,,,,,"InChI=1S/C24H52NO4P/c1-5-7-9-11-13-14-15-16-17-19-21-25(3,4)22-24-29-30(26,27)28-23-20-18-12-10-8-6-2/h5-24H2,1-4H3",NMZLDCGBPWVFMK-UHFFFAOYSA-N,449.363395774
CCCCCCCCCCCC[N+](C)(C)CCOP(=O)([O-])OCCCCCCCCCC,gemini zwitterionic,1.2998702373886E-05,4.8861,,,,,,,25,10.1016/j.chemosphere.2011.05.031,,,,,,,,,,"InChI=1S/C26H56NO4P/c1-5-7-9-11-13-15-16-17-19-21-23-27(3,4)24-26-31-32(28,29)30-25-22-20-18-14-12-10-8-6-2/h5-26H2,1-4H3",JBNULOMOBPSFJM-UHFFFAOYSA-N,477.394695902
CCCCCCCCCCCC[N+](C)(C)CCOc1ccc(C=NNC(=O)C(=O)NN=Cc2ccc(OCC[N+](C)(C)CCCCCCCCCCCC)cc2)cc1.[Cl-].[Cl-],gemini cationic,,,32.6,,,,,,,,10.1016/j.ces.2022.118208,,10.1080/01932691.2021.1929289,,,,,,,"InChI=1S/C48H80N6O4.2ClH/c1-7-9-11-13-15-17-19-21-23-25-35-53(3,4)37-39-57-45-31-27-43(28-32-45)41-49-51-47(55)48(56)52-50-42-44-29-33-46(34-30-44)58-40-38-54(5,6)36-26-24-22-20-18-16-14-12-10-8-2;;/h27-34,41-42H,7-26,35-40H2,1-6H3;2*1H",HYHCGAZONCVSOQ-UHFFFAOYSA-N,876.577460464
CCCCCCCCCCCC[N+](C)(C)CCSCC[N+](C)(C)CCCCCCCCCCCC.[Br-].[Br-],gemini cationic,0.00084,3.07572071393812,34.5,0.00000119,1.4,37.5,3.93435236968773,0.0195583618146965,25,"['10.1016/j.chemosphere.2011.05.031', '10.1016/0021-9797(86)90417-0', '10.1016/0021-9797(86)90417-0']",10.1016/j.ces.2022.118208,,10.1016/0021-9797(86)90417-0,10.1016/0021-9797(86)90417-0,,,calculated,calculated,"N,N'-bis(dodecyldimethyl)-3-S-1,5-pentanediammoniumdibromide","InChI=1S/C32H70N2S.2BrH/c1-7-9-11-13-15-17-19-21-23-25-27-33(3,4)29-31-35-32-30-34(5,6)28-26-24-22-20-18-16-14-12-10-8-2;;/h7-32H2,1-6H3;2*1H/q+2;;/p-2",XXXDULVGXYMMCE-UHFFFAOYSA-L,672.36264544