SMILES,Surfactant_Type,CMC,pCMC,AW_ST_CMC,Gamma_max,Area_min,Pi_CMC,pC20,C20,Temp_Celsius,Ref_CMC,Ref_AW_ST_CMC,SubRef_CMC,SubRef_AW_ST_CMC,Ref_Gamma_max,Ref_Pi_CMC,Ref_Area_min,Ref_pC20,Ref_C20,IUPAC_name,InChI,InChIKey,Molecular_Weight
CCCCCCCCCCCCC(CC)COS(=O)(=O)[O-].[Na+],anionic,0.0015,2.82390874094432,,,,,,,25,10.1021/ci600462d,,10.1006/jcis.1996.4680,,,,,,,,"InChI=1S/C16H34O4S.Na/c1-3-5-6-7-8-9-10-11-12-13-14-16(4-2)15-20-21(17,18)19;/h16H,3-15H2,1-2H3,(H,17,18,19);/q;+1/p-1",AUWISZNVINOVNW-UHFFFAOYSA-M,344.199724816
CCCCCCCCCCCCC(CC)OS(=O)(=O)[O-].[Na+],anionic,0.002198,2.65797231191253,,,,,,,25,10.1021/ci600462d,,10.1006/jcis.1996.4680,,,,,,,,"InChI=1S/C15H32O4S.Na/c1-3-5-6-7-8-9-10-11-12-13-14-15(4-2)19-20(16,17)18;/h15H,3-14H2,1-2H3,(H,16,17,18);/q;+1/p-1",QKBNBULCBPQCHA-UHFFFAOYSA-M,330.184074752
CCCCCCCCCCCCC(CC)c1ccc(S(=O)(=O)[O-])cc1.[Na+],anionic,0.0005248,3.2800061736324,,,,,,,25,10.1021/ci600462d,,10.1016/j.theochem.2004.08.039,,,,,,,sodium-4-pentadecan-3-ylbenzenesulfonate,"InChI=1S/C21H36O3S.Na/c1-3-5-6-7-8-9-10-11-12-13-14-19(4-2)20-15-17-21(18-16-20)25(22,23)24;/h15-19H,3-14H2,1-2H3,(H,22,23,24);/q;+1/p-1",QGSTZEUGTITINC-UHFFFAOYSA-M,390.22046026
CCCCCCCCCCCCC(CCC)OS(=O)(=O)[O-].[Na+],anionic,0.00235,2.62893213772826,,,,,,,25,10.1021/ci600462d,,10.1006/jcis.1996.4680,,,,,,,sodium-hexadecan-4-yl-sulfate,"InChI=1S/C16H34O4S.Na/c1-3-5-6-7-8-9-10-11-12-13-15-16(14-4-2)20-21(17,18)19;/h16H,3-15H2,1-2H3,(H,17,18,19);/q;+1/p-1",QHVQJDLEBRKTHT-UHFFFAOYSA-M,344.199724816
CCCCCCCCCCCCC(CCCCC)OS(=O)(=O)[O-].[Na+],anionic,0.0009397,3.02701077314465,,,,,,,25,10.1021/ci600462d,,10.1006/jcis.1996.4680,,,,,,,,"InChI=1S/C18H38O4S.Na/c1-3-5-7-8-9-10-11-12-13-15-17-18(16-14-6-4-2)22-23(19,20)21;/h18H,3-17H2,1-2H3,(H,19,20,21);/q;+1/p-1",NRESNHBTPVKPKC-UHFFFAOYSA-M,372.231024944
CCCCCCCCCCCCC(CO)S(=O)(=O)[O-].[Na+],anionic,0.003698,2.43203309317685,,,,,,,25,10.1021/ci600462d,,,,,,,,,sodium-1-hydroxytetradecane-2-sulfonate,"InChI=1S/C14H30O4S.Na/c1-2-3-4-5-6-7-8-9-10-11-12-14(13-15)19(16,17)18;/h14-15H,2-13H2,1H3,(H,16,17,18);/q;+1/p-1",QMDUHHPMWQFJCW-UHFFFAOYSA-M,316.168424688
CCCCCCCCCCCCC(CSCCCCSCC(CCCCCCCCCCCC)[n+]1ccn(C)c1)[n+]1ccn(C)c1.[Br-].[Br-],gemini cationic,0.00007096,4.14898639317633,,,,,,,25,10.1063/5.0051623,,10.1002/9781119075691.ch43,,,,,,,,"InChI=1S/C40H76N4S2.2BrH/c1-5-7-9-11-13-15-17-19-21-23-27-39(43-31-29-41(3)37-43)35-45-33-25-26-34-46-36-40(44-32-30-42(4)38-44)28-24-22-20-18-16-14-12-10-8-6-2;;/h29-32,37-40H,5-28,33-36H2,1-4H3;2*1H/q+2;;/p-2",TUHNXDKTCDUZNO-UHFFFAOYSA-L,834.387814632
CCCCCCCCCCCCC(CSCCCSCC(CCCCCCCCCCCC)[n+]1ccn(C)c1)[n+]1ccn(C)c1.[Br-].[Br-],gemini cationic,0.00008492,4.07099001450604,,,,,,,25,10.1063/5.0051623,,10.1002/9781119075691.ch43,,,,,,,,"InChI=1S/C39H74N4S2.2BrH/c1-5-7-9-11-13-15-17-19-21-23-26-38(42-30-28-40(3)36-42)34-44-32-25-33-45-35-39(43-31-29-41(4)37-43)27-24-22-20-18-16-14-12-10-8-6-2;;/h28-31,36-39H,5-27,32-35H2,1-4H3;2*1H/q+2;;/p-2",CGWDFEPWFOFQBQ-UHFFFAOYSA-L,820.372164568
CCCCCCCCCCCCC(CSCCSCC(CCCCCCCCCCCC)[n+]1ccccc1)[n+]1ccccc1.[Br-].[Br-],gemini cationic,0.0001,4,,,,,,,25,10.1063/5.0051623,,10.1002/9781119075691.ch43,,,,,,,,"InChI=1S/C40H70N2S2.2BrH/c1-3-5-7-9-11-13-15-17-19-23-29-39(41-31-25-21-26-32-41)37-43-35-36-44-38-40(42-33-27-22-28-34-42)30-24-20-18-16-14-12-10-8-6-4-2;;/h21-22,25-28,31-34,39-40H,3-20,23-24,29-30,35-38H2,1-2H3;2*1H/q+2;;/p-2",ITLWRMOQRXMCGZ-UHFFFAOYSA-L,800.33471644
CCCCCCCCCCCCC(CSCCSCC(CCCCCCCCCCCC)[n+]1ccn(C)c1)[n+]1ccn(C)c1.[Br-].[Br-],gemini cationic,0.0001,4,,,,,,,25,10.1063/5.0051623,,10.1002/9781119075691.ch43,,,,,,,,"InChI=1S/C38H72N4S2.2BrH/c1-5-7-9-11-13-15-17-19-21-23-25-37(41-29-27-39(3)35-41)33-43-31-32-44-34-38(42-30-28-40(4)36-42)26-24-22-20-18-16-14-12-10-8-6-2;;/h27-30,35-38H,5-26,31-34H2,1-4H3;2*1H/q+2;;/p-2",OHEKHZUJCXZSEI-UHFFFAOYSA-L,806.356514504
CCCCCCCCCCCCC(C[N+](C)(C)C)C(CCCCCCCCCCCC)C[N+](C)(C)C.[Br-].[Br-],gemini cationic,0.000728,3.13786862068696,35.3,0.00000188,0.09,36.7,3.77,0.00017,25,10.5650/jos.52.449,10.1016/j.ces.2022.118208,,10.5650/jos.51.715,10.5650/jos.52.449,10.5650/jos.52.449,10.5650/jos.52.449,10.5650/jos.52.449,,"1,4-Bis(trimethylammonio)-2,3-dodecyloxybutanedibromide","InChI=1S/C34H74N2.2BrH/c1-9-11-13-15-17-19-21-23-25-27-29-33(31-35(3,4)5)34(32-36(6,7)8)30-28-26-24-22-20-18-16-14-12-10-2;;/h33-34H,9-32H2,1-8H3;2*1H/q+2;;/p-2",RIYIQOUUTLKCEU-UHFFFAOYSA-L,668.421874568
CCCCCCCCCCCCC(NCCOCCOCCOCCO)C(=O)O,non-ionic,0.0003357,3.47404865875199,,,,,,,25,10.1021/ie4016232,,,,,,,,,,"InChI=1S/C22H45NO6/c1-2-3-4-5-6-7-8-9-10-11-12-21(22(25)26)23-13-15-27-17-19-29-20-18-28-16-14-24/h21,23-24H,2-20H2,1H3,(H,25,26)",MBYUFGOUHYCVOH-UHFFFAOYSA-N,419.32468816
CCCCCCCCCCCCC(O)CCO,non-ionic,,,26.3,,,,,,,,10.1016/j.ces.2022.118208,,10.1002/0471670561,,,,,,,"InChI=1S/C15H32O2/c1-2-3-4-5-6-7-8-9-10-11-12-15(17)13-14-16/h15-17H,2-14H2,1H3",UGJRMHXEWBBMMN-UHFFFAOYSA-N,244.240230264
CCCCCCCCCCCCC(O)Cn1cc[n+](CCO)c1.[Br-],cationic,0.0007,3.15490195998574,31.4,0.00000268,0.61,41,3.78,0.000165,25,10.1016/j.colsurfa.2013.08.063,10.1016/j.ces.2022.118208,,10.1016/j.colsurfa.2013.08.063,10.1016/j.colsurfa.2013.08.063,10.1016/j.colsurfa.2013.08.063,10.1016/j.colsurfa.2013.08.063,,10.1016/j.colsurfa.2013.08.063,N-(2-hydroxynonyl)imidazolesbromide,"InChI=1S/C19H37N2O2.BrH/c1-2-3-4-5-6-7-8-9-10-11-12-19(23)17-21-14-13-20(18-21)15-16-22;/h13-14,18-19,22-23H,2-12,15-17H2,1H3;1H/q+1;/p-1",FMBXPSDCCPHFHL-UHFFFAOYSA-M,404.203840524
CCCCCCCCCCCCC(O)Cn1cc[n+](CCO)c1.[Cl-],cationic,0.00229,2.64016451766011,36,0.00000388,0.42,36.37,3.01,0.000977,25,10.1016/j.colsurfa.2013.08.063,10.1016/j.ces.2022.118208,,10.1016/j.colsurfa.2013.08.063,10.1016/j.colsurfa.2013.08.063,10.1016/j.colsurfa.2013.08.063,10.1016/j.colsurfa.2013.08.063,,10.1016/j.colsurfa.2013.08.063,N-(2-hydroxynonyl)imidazoleschloride,"InChI=1S/C19H37N2O2.ClH/c1-2-3-4-5-6-7-8-9-10-11-12-19(23)17-21-14-13-20(18-21)15-16-22;/h13-14,18-19,22-23H,2-12,15-17H2,1H3;1H/q+1;/p-1",JNAAXSGHXMBWHM-UHFFFAOYSA-M,360.254356104
CCCCCCCCCCCCC(O)OCCOCCOCCOCCOCC,non-ionic,0.000049,4.30980391997149,,,,,,,25,10.1002/9781118228920.ch3,,,,,,,,,,"InChI=1S/C23H48O6/c1-3-5-6-7-8-9-10-11-12-13-14-23(24)29-22-21-28-20-19-27-18-17-26-16-15-25-4-2/h23-24H,3-22H2,1-2H3",AASIHRUCFOYRJC-UHFFFAOYSA-N,420.345089256
CCCCCCCCCCCCC(O)OCCOCCOCCOCCOCCOCCOCCOCC,non-ionic,0.000027,4.56863623584101,35.3,0.00000278,0.6,36.7,5.62,0.00000239,25,10.1002/9781118228920.ch3,10.1002/9781118228920.ch5,,,10.1002/9781118228920.ch5,10.1002/9781118228920.ch5,,,,,"InChI=1S/C29H60O9/c1-3-5-6-7-8-9-10-11-12-13-14-29(30)38-28-27-37-26-25-36-24-23-35-22-21-34-20-19-33-18-17-32-16-15-31-4-2/h29-30H,3-28H2,1-2H3",GQNASKIEHNGSDZ-UHFFFAOYSA-N,552.4237335
CCCCCCCCCCCCC(O)OCCc1ccc(S(=O)(=O)[O-])cc1.[Na+],anionic,0.002999,2.52302353424047,,,,,,,25,10.1021/ci600462d,,10.1006/jcis.1996.4680,,,,,,,,"InChI=1S/C21H36O5S.Na/c1-2-3-4-5-6-7-8-9-10-11-12-21(22)26-18-17-19-13-15-20(16-14-19)27(23,24)25;/h13-16,21-22H,2-12,17-18H2,1H3,(H,23,24,25);/q;+1/p-1",IEHVQRDQHJVRPU-UHFFFAOYSA-M,422.2102895
CCCCCCCCCCCCC(O)[C@H]1OC(O)[C@H](O)[C@@H](O)[C@@H]1O,non-ionic,0.0001901,3.72101788313456,,,,,,,25,10.1021/ie4016232,,,,,,,,,,"InChI=1S/C18H36O6/c1-2-3-4-5-6-7-8-9-10-11-12-13(19)17-15(21)14(20)16(22)18(23)24-17/h13-23H,2-12H2,1H3/t13?,14-,15-,16+,17+,18?/m0/s1",LJDHDYWWZFOXAJ-KRIXMNJCSA-N,348.251188872
CCCCCCCCCCCCC(O)[C@H]1O[C@H](O[C@H]2[C@H](O)[C@@H](O)C(O)O[C@@H]2CO)[C@H](O)[C@@H](O)[C@@H]1O,non-ionic,0.0002399,3.61996975203217,,,,,,,25,10.1021/ie4016232,,,,,,,,,,"InChI=1S/C24H46O11/c1-2-3-4-5-6-7-8-9-10-11-12-14(26)21-17(28)16(27)20(31)24(34-21)35-22-15(13-25)33-23(32)19(30)18(22)29/h14-32H,2-13H2,1H3/t14?,15-,16+,17+,18-,19-,20-,21-,22-,23?,24-/m1/s1",NDOIXWAJQZPQBB-DZXAHHQGSA-N,510.304012292
CCCCCCCCCCCCC(O)[C@H]1O[C@H](O[C@]2(CO)O[C@H](CO)[C@@H](O)[C@@H]2O)[C@H](O)[C@@H](O)[C@@H]1O,non-ionic,0.0003396,3.46903231842809,,,,,,,25,10.1021/ie4016232,,,,,,,,,,"InChI=1S/C24H46O11/c1-2-3-4-5-6-7-8-9-10-11-12-15(27)21-19(30)18(29)20(31)23(33-21)35-24(14-26)22(32)17(28)16(13-25)34-24/h15-23,25-32H,2-14H2,1H3/t15?,16-,17-,18+,19+,20-,21-,22+,23-,24+/m1/s1",UUQUBFYKEQAKAP-QKQUSDTBSA-N,510.304012292
CCCCCCCCCCCCC(OC(C)=O)S(=O)(=O)[O-].[Na+],anionic,0.0003999,3.39804859586648,,,,,,,25,10.1021/ci600462d,,,,,,,,,,"InChI=1S/C15H30O5S.Na/c1-3-4-5-6-7-8-9-10-11-12-13-15(20-14(2)16)21(17,18)19;/h15H,3-13H2,1-2H3,(H,17,18,19);/q;+1/p-1",ONICLEFBFOKMKR-UHFFFAOYSA-M,344.163339308
CCCCCCCCCCCCC=CS(=O)(=O)[O-].[Na+],anionic,0.002698,2.56895805466411,,,,,,,25,10.1021/ci600462d,,,,,,,,,sodium-tetradec-1-ene-1-sulfonate,"InChI=1S/C14H28O3S.Na/c1-2-3-4-5-6-7-8-9-10-11-12-13-14-18(15,16)17;/h13-14H,2-12H2,1H3,(H,15,16,17);/q;+1/p-1",RUTSRVMUIGMTHJ-UHFFFAOYSA-M,298.157860004
CCCCCCCCCCCCCC(=O)CCS(=O)(=O)[O-].[Na+],anionic,0.001841,2.73494621149599,,,,,,,40,10.1021/ci600462d,,10.1006/jcis.1996.4680,,,,,,,sodium-3-oxo-1-hexadecanesulfonate,"InChI=1S/C16H32O4S.Na/c1-2-3-4-5-6-7-8-9-10-11-12-13-16(17)14-15-21(18,19)20;/h2-15H2,1H3,(H,18,19,20);/q;+1/p-1",UWFUAEDOCCOHCZ-UHFFFAOYSA-M,342.184074752
CCCCCCCCCCCCCC(=O)NC(CCCNC([N+])N)C(=O)OC.[Cl-],cationic,0.002,2.69897000433602,32,0.00000268,0.62,40,3.35255529453348,0.0349948176872737,25,10.1016/j.crci.2004.02.009,10.1016/j.ces.2022.118208,,10.1016/j.crci.2004.02.009,,10.1016/j.crci.2004.02.009,10.1016/j.crci.2004.02.009,calculated,calculated,α-N-dodecyl-arginine-methylesterhydrochloride,"InChI=1S/C21H42N4O3.ClH/c1-3-4-5-6-7-8-9-10-11-12-13-16-19(26)25-18(20(27)28-2)15-14-17-24-21(22)23;/h18,21,24H,3-17,22H2,1-2H3,(H,25,26);1H/q+1;/p-1",ZSUNSOILFCAWNB-UHFFFAOYSA-M,433.294543884
CCCCCCCCCCCCCC(=O)NC(O)[C@H]1O[C@@H](O[C@@H]([C@H](O)[C@@H](O)CO)[C@H](O)CO)[C@H](O)[C@@H](O)[C@H]1O,sugar-based non-ionic,0.0000676,4.17005330405836,37,0.00000326,0.508,34.97,4.87,0.00767336528789549,25,10.1021/acs.iecr.6b02890,10.1016/j.jcis.2018.01.051,10.1016/j.molliq.2018.01.037,,10.1007/s11743-001-0169-1,calculated,,10.1007/s11743-001-0169-1,calculated,N-tetradecanoyl-N-methyllactitolamine,"InChI=1S/C26H51NO12/c1-2-3-4-5-6-7-8-9-10-11-12-13-18(32)27-25(37)24-21(35)20(34)22(36)26(39-24)38-23(17(31)15-29)19(33)16(30)14-28/h16-17,19-26,28-31,33-37H,2-15H2,1H3,(H,27,32)/t16-,17+,19+,20-,21+,22+,23+,24-,25?,26+/m0/s1",RAFGOZXWTFAARR-DTUVXWTKSA-N,569.341126072
CCCCCCCCCCCCCC(=O)NCCC[N+](C)(C)CCCCCCCCCC.[Br-],cationic,0.000423,3.37365963262496,33.8,0.00000087,1.9,37.98,5.21,0.00000612,25,10.1016/j.molliq.2015.10.024,10.1016/j.ces.2022.118208,,10.1016/j.molliq.2015.10.024,10.1016/j.molliq.2015.10.024,10.1016/j.molliq.2015.10.024,10.1016/j.molliq.2015.10.024,10.1016/j.molliq.2015.10.024,,"N,N-dimethyl-N-(3-tetradecanamidopropyl)decan-1-ammoniumbromide","InChI=1S/C29H60N2O.BrH/c1-5-7-9-11-13-15-16-17-18-20-22-25-29(32)30-26-24-28-31(3,4)27-23-21-19-14-12-10-8-6-2;/h5-28H2,1-4H3;1H",PAUARHJLDWJGAD-UHFFFAOYSA-N,532.396726672
CCCCCCCCCCCCCC(=O)NCCC[N+](C)(C)CCCCCCCCCCCC.[Br-],cationic,0.000215,3.66756154008439,31.6,0.00000085,1.95,40.19,5.8,0.00000158,25,10.1016/j.molliq.2015.10.024,10.1016/j.ces.2022.118208,,10.1016/j.molliq.2015.10.024,10.1016/j.molliq.2015.10.024,10.1016/j.molliq.2015.10.024,10.1016/j.molliq.2015.10.024,10.1016/j.molliq.2015.10.024,,"N,N-dimethyl-N-(3-tetradecanamidopropyl)dodecan-1-ammoniumbromide","InChI=1S/C31H64N2O.BrH/c1-5-7-9-11-13-15-17-18-20-22-24-27-31(34)32-28-26-30-33(3,4)29-25-23-21-19-16-14-12-10-8-6-2;/h5-30H2,1-4H3;1H",VCWSPDKYZFQVJF-UHFFFAOYSA-N,560.4280268
CCCCCCCCCCCCCC(=O)NCCC[N+](C)(C)Cc1ccc(C[N+](C)(C)CCCNC(=O)CCCCCCCCCCCCC)cc1.[Cl-].[Cl-],gemini cationic,0.00013,3.88605664769316,46.2,0.00000088,1.88,25.8,3.25,0.000562,25,10.1007/s11743-013-1502-0,10.1016/j.ces.2022.118208,,10.1007/s11743-013-1502-0,10.1007/s11743-013-1502-0,,10.1007/s11743-013-1502-0,10.1007/s11743-013-1502-0,,"bis-(N-(3-tridecylamido-propyl)-N,Ndimethyl)-p-phenyleneDiammoniumDichloride","InChI=1S/C46H86N4O2.2ClH/c1-7-9-11-13-15-17-19-21-23-25-27-31-45(51)47-37-29-39-49(3,4)41-43-33-35-44(36-34-43)42-50(5,6)40-30-38-48-46(52)32-28-26-24-22-20-18-16-14-12-10-8-2;;/h33-36H,7-32,37-42H2,1-6H3;2*1H",QGCYTOAZCCJCFM-UHFFFAOYSA-N,798.628433416
CCCCCCCCCCCCCC(=O)NCCC[N+](C)(C)Cc1ccccc1.[Cl-],cationic,0.000108,3.96657624451305,32.3,0.00000756,2.2,40.19,6.17,0.000676,25,10.1007/s11743-016-1795-x,10.1016/j.ces.2022.118208,,10.1007/s11743-016-1795-x,10.1007/s11743-016-1795-x,10.1007/s11743-016-1795-x,10.1007/s11743-016-1795-x,10.1007/s11743-016-1795-x,,N-(3-(dimethylbenzylammonium)propyl)myristamidechloride,"InChI=1S/C26H46N2O.ClH/c1-4-5-6-7-8-9-10-11-12-13-17-21-26(29)27-22-18-23-28(2,3)24-25-19-15-14-16-20-25;/h14-16,19-20H,4-13,17-18,21-24H2,1-3H3;1H",JQQZCIIDNVIQKO-UHFFFAOYSA-N,438.337691804
CCCCCCCCCCCCCC(=O)N[N+](C)(C)CCC[N+](C)(C)NC(=O)CCCCCCCCCCCCC.[Br-].[Br-],gemini cationic,0.00141,2.85078088734462,37.5,0.00000216,0.77,34.5,3.25,0.000562,25,10.5650/jos.59.647,10.1016/j.ces.2022.118208,,10.5650/jos.59.647,10.5650/jos.59.647,,10.5650/jos.59.647,,,"1,3-bis(N'-tridecyl-N,N-dimethylhydrazinium)propanedibromide","InChI=1S/C35H72N4O2.2BrH/c1-7-9-11-13-15-17-19-21-23-25-27-30-34(40)36-38(3,4)32-29-33-39(5,6)37-35(41)31-28-26-24-22-20-18-16-14-12-10-8-2;;/h7-33H2,1-6H3;2*1H",YCDFZSRHXLPVMO-UHFFFAOYSA-N,740.417851808
CCCCCCCCCCCCCC(=O)OC(C)C(=O)NCCCN(C)C,non-ionic,,,26.5,,,,,,,,10.1016/j.ces.2022.118208,,10.1007/s11743-000-0142-z,,,,,,,"InChI=1S/C22H44N2O3/c1-5-6-7-8-9-10-11-12-13-14-15-17-21(25)27-20(2)22(26)23-18-16-19-24(3)4/h20H,5-19H2,1-4H3,(H,23,26)",BMZRTNNJOOEOEA-UHFFFAOYSA-N,384.335193268
CCCCCCCCCCCCCC(=O)OC(C)C(=O)NCCC[N+](C)(C)C.COS(=O)(=O)[O-],zwitterionic,,,26.4,,,,,,,,10.1016/j.ces.2022.118208,,10.1007/s11743-000-0142-z,,,,,,,"InChI=1S/C23H46N2O3.CH4O4S/c1-6-7-8-9-10-11-12-13-14-15-16-18-22(26)28-21(2)23(27)24-19-17-20-25(3,4)5;1-5-6(2,3)4/h21H,6-20H2,1-5H3;1H3,(H,2,3,4)",WUFMSSQZQIMTLI-UHFFFAOYSA-N,510.33387294
CCCCCCCCCCCCCC(=O)OCC(COC(=O)CCCCCCCCCCCCC)(C[n+]1ccn(C)c1)C[n+]1ccn(C)c1.[Br-].[Br-],gemini cationic,0.0001199,3.92118081690115,,,,,,,25,10.1063/5.0051623,,,,,,,,,,"InChI=1S/C41H74N4O4.2BrH/c1-5-7-9-11-13-15-17-19-21-23-25-27-39(46)48-35-41(33-44-31-29-42(3)37-44,34-45-32-30-43(4)38-45)36-49-40(47)28-26-24-22-20-18-16-14-12-10-8-6-2;;/h29-32,37-38H,5-28,33-36H2,1-4H3;2*1H/q+2;;/p-2",JIQSSVLITGGIDE-UHFFFAOYSA-L,844.407681048
CCCCCCCCCCCCCC(=O)OCC(O)CN(CCCCC([N+])C(=O)OC)CC(O)CO.[Cl-],cationic,,,31,,,,,,,,10.1016/j.ces.2022.118208,,10.1021/la901675p,,,,,,,"InChI=1S/C27H52N2O7.ClH/c1-3-4-5-6-7-8-9-10-11-12-13-17-26(33)36-22-24(32)20-29(19-23(31)21-30)18-15-14-16-25(28)27(34)35-2;/h23-25,30-32H,3-22H2,1-2H3;1H/q+1;/p-1",GSWABNNJJPKXPN-UHFFFAOYSA-M,551.346304684
CCCCCCCCCCCCCC(=O)OCC(O)CN(CCCCC([N+])C(=O)OC)CC(O)COC(=O)CCCCCCCCCCCCC.[Cl-],cationic,,,25,,,,,,,,10.1016/j.ces.2022.118208,,10.1021/la901675p,,,,,,,"InChI=1S/C41H78N2O8.ClH/c1-4-6-8-10-12-14-16-18-20-22-24-29-39(46)50-34-36(44)32-43(31-27-26-28-38(42)41(48)49-3)33-37(45)35-51-40(47)30-25-23-21-19-17-15-13-11-9-7-5-2;/h36-38,44-45H,4-35H2,1-3H3;1H/q+1;/p-1",PTEPMQIRMJDZOL-UHFFFAOYSA-M,761.544670136
CCCCCCCCCCCCCC(=O)OCC1OC(OCCC[N+](C)(C)C)C(O)C(O)C1O.[I-],cationic,,,27.3,,,,,,,,10.1016/j.ces.2022.118208,,10.1007/s11743-998-0005-7,,,,,,,"InChI=1S/C26H52NO7.HI/c1-5-6-7-8-9-10-11-12-13-14-15-17-22(28)33-20-21-23(29)24(30)25(31)26(34-21)32-19-16-18-27(2,3)4;/h21,23-26,29-31H,5-20H2,1-4H3;1H/q+1;/p-1",VXIGOHUVBOCBGW-UHFFFAOYSA-M,617.278851004
CCCCCCCCCCCCCC(=O)OCC[N+](C)(C)CC(O)C[N+](C)(C)CCOC(=O)CCCCCCCCCCC.[Cl-].[Cl-],gemini cationic,,,40,,,,,,,,10.1016/j.ces.2022.118208,,10.1007/s11743-010-1207-6,,,,,,,"InChI=1S/C37H76N2O5.2ClH/c1-7-9-11-13-15-17-18-20-22-24-26-28-37(42)44-32-30-39(5,6)34-35(40)33-38(3,4)29-31-43-36(41)27-25-23-21-19-16-14-12-10-8-2;;/h35,40H,7-34H2,1-6H3;2*1H/q+2;;/p-2",ZHEOUOKIHVQXAG-UHFFFAOYSA-L,698.513128892
CCCCCCCCCCCCCC(=O)OCC[N+](C)(CCO)CCCCCCCCCCCC[N+](C)(CCO)CCOC(=O)CCCCCCCCCCCCC.[Br-].[Br-],gemini cationic,0.00038,3.42021640338319,43,0.00000064,2.59,29,5.2,0.00551656442076077,25,10.1016/j.jiec.2015.02.011,,,,10.1016/j.jiec.2015.02.011,10.1016/j.jiec.2015.02.011,10.1016/j.jiec.2015.02.011,10.1016/j.jiec.2015.02.011,calculated,"N,N'-bis(2-hydroxyethyl)-N,N'-dimethyl-N,N'-bis(2-tetradecanoyloxy)ethyl)dodecane-1,12-diaminiumbromide","InChI=1S/C50H102N2O6.2BrH/c1-5-7-9-11-13-15-17-21-25-29-33-37-49(55)57-47-43-51(3,41-45-53)39-35-31-27-23-19-20-24-28-32-36-40-52(4,42-46-54)44-48-58-50(56)38-34-30-26-22-18-16-14-12-10-8-6-2;;/h53-54H,5-48H2,1-4H3;2*1H/q+2;;/p-2",FMAFKMLAQIDWIL-UHFFFAOYSA-L,984.610463184
CCCCCCCCCCCCCC(=O)OCC[N+](C)(CCO)CCCCCC[N+](C)(CCO)CCOC(=O)CCCCCCCCCCCCC.[Br-].[Br-],gemini cationic,0.000389,3.41005039867429,40,0.000000378,4.38,32,5.1,0.00609674656551564,25,10.1016/j.jiec.2015.02.011,,,,10.1016/j.jiec.2015.02.011,10.1016/j.jiec.2015.02.011,10.1016/j.jiec.2015.02.011,10.1016/j.jiec.2015.02.011,calculated,"N,N'-bis(2-hydroxyethyl)-N,N'-dimethyl-N,N'-bis(2-tetradecanoyloxy)ethyl)hexane-1,6-diaminiumbromide","InChI=1S/C44H90N2O6.2BrH/c1-5-7-9-11-13-15-17-19-21-23-27-31-43(49)51-41-37-45(3,35-39-47)33-29-25-26-30-34-46(4,36-40-48)38-42-52-44(50)32-28-24-22-20-18-16-14-12-10-8-6-2;;/h47-48H,5-42H2,1-4H3;2*1H/q+2;;/p-2",ZMEHQXVBFYMRFM-UHFFFAOYSA-L,900.5165628
CCCCCCCCCCCCCC(=O)OCC[N+](C)(CCO)CC[N+](C)(CCO)CCOC(=O)CCCCCCCCCCCCC.[Br-].[Br-],gemini cationic,0.00141,2.85078088734462,41,0.000000815,2.03,31,4.7,0.00909527710169582,25,10.1016/j.jiec.2015.02.011,,,,10.1016/j.jiec.2015.02.011,10.1016/j.jiec.2015.02.011,10.1016/j.jiec.2015.02.011,10.1016/j.jiec.2015.02.011,calculated,"N,N'-bis(2-hydroxyethyl)-N,N'-dimethyl-N,N'-bis(2-tetradecanoyloxy)ethyl)ethane-1,2-diaminiumbromide","InChI=1S/C40H82N2O6.2BrH/c1-5-7-9-11-13-15-17-19-21-23-25-27-39(45)47-37-33-41(3,31-35-43)29-30-42(4,32-36-44)34-38-48-40(46)28-26-24-22-20-18-16-14-12-10-8-6-2;;/h43-44H,5-38H2,1-4H3;2*1H/q+2;;/p-2",BINKXXZBSTXCOI-UHFFFAOYSA-L,844.453962544
CCCCCCCCCCCCCC(=O)Oc1cccc2ccc[n+](CCCCCCCCCC)c12.[Br-],cationic,0.042,1.3767507096021,45,0.000000784,2.12,27,2.33724216831843,0.0046,25,10.1080/01932691.2012.683979,10.1016/j.ces.2022.118208,,10.1080/01932691.2012.683979,10.1080/01932691.2012.683979,10.1080/01932691.2012.683979,10.1080/01932691.2012.683979,,10.1080/01932691.2012.683979,,"InChI=1S/C33H54NO2.BrH/c1-3-5-7-9-11-13-14-15-16-18-20-27-32(35)36-31-26-22-24-30-25-23-29-34(33(30)31)28-21-19-17-12-10-8-6-4-2;/h22-26,29H,3-21,27-28H2,1-2H3;1H/q+1;/p-1",VICJRTCHJLLSQH-UHFFFAOYSA-M,575.333792068
CCCCCCCCCCCCCC(=O)Oc1cccc2ccc[n+](CCCCCCCCCC[n+]3cccc4cccc(OC(=O)CCCCCCCCCCCCC)c43)c12.[Br-].[Br-],gemini cationic,0.0056,2.2518119729938,45,0.000000401,4.14,27,3.26760624017703,0.00054,25,10.1080/01932691.2012.683979,10.1016/j.ces.2022.118208,,10.1080/01932691.2012.683979,10.1080/01932691.2012.683979,10.1080/01932691.2012.683979,10.1080/01932691.2012.683979,,10.1080/01932691.2012.683979,,"InChI=1S/C56H86N2O4.2BrH/c1-3-5-7-9-11-13-15-17-21-25-29-43-53(59)61-51-41-33-37-49-39-35-47-57(55(49)51)45-31-27-23-19-20-24-28-32-46-58-48-36-40-50-38-34-42-52(56(50)58)62-54(60)44-30-26-22-18-16-14-12-10-8-6-4-2;;/h33-42,47-48H,3-32,43-46H2,1-2H3;2*1H/q+2;;/p-2",HVVURAKFMNDXEF-UHFFFAOYSA-L,1008.495433432
CCCCCCCCCCCCCC(=O)Oc1cccc2ccc[n+](CCCCCC[n+]3cccc4cccc(OC(=O)CCCCCCCCCCCCC)c43)c12.[Br-].[Br-],gemini cationic,0.016,1.79588001734408,43,0.00000044,3.77,29,3.83863199776503,0.000145,25,10.1080/01932691.2012.683979,10.1016/j.ces.2022.118208,,10.1080/01932691.2012.683979,10.1080/01932691.2012.683979,10.1080/01932691.2012.683979,10.1080/01932691.2012.683979,,10.1080/01932691.2012.683979,,"InChI=1S/C52H78N2O4.2BrH/c1-3-5-7-9-11-13-15-17-19-21-25-39-49(55)57-47-37-29-33-45-35-31-43-53(51(45)47)41-27-23-24-28-42-54-44-32-36-46-34-30-38-48(52(46)54)58-50(56)40-26-22-20-18-16-14-12-10-8-6-4-2;;/h29-38,43-44H,3-28,39-42H2,1-2H3;2*1H/q+2;;/p-2",WTEAQZDGAPNCDG-UHFFFAOYSA-L,952.432833176
CCCCCCCCCCCCCC(C)COS(=O)(=O)[O-].[Na+],anionic,0.001099,2.95900230757651,,,,,,,25,10.1021/ci600462d,,10.1006/jcis.1996.4680,,,,,,,,"InChI=1S/C16H34O4S.Na/c1-3-4-5-6-7-8-9-10-11-12-13-14-16(2)15-20-21(17,18)19;/h16H,3-15H2,1-2H3,(H,17,18,19);/q;+1/p-1",PPSHEGPAHNHRCZ-UHFFFAOYSA-M,344.199724816