SMILES,Surfactant_Type,CMC,pCMC,AW_ST_CMC,Gamma_max,Area_min,Pi_CMC,pC20,C20,Temp_Celsius,Ref_CMC,Ref_AW_ST_CMC,SubRef_CMC,SubRef_AW_ST_CMC,Ref_Gamma_max,Ref_Pi_CMC,Ref_Area_min,Ref_pC20,Ref_C20,IUPAC_name,InChI,InChIKey,Molecular_Weight
CCCCCCCCCCCCCCN(C)C(=O)[C@H](O)[C@@H](O)[C@H](O)[C@H](O)CO,sugar-based non-ionic,0.000024,4.61978875828839,35,0.00000397,0.42,37.8,5.6,0.00000251,20,10.1021/acs.iecr.6b02890,10.1016/j.jcis.2018.01.051,10.1016/j.molliq.2018.01.037,,10.1006/jcis.2001.7704,10.1006/jcis.2001.7704,10.1006/jcis.2001.7704,10.1006/jcis.2001.7704,,N-tetradecyl-N-methylgluconamide,"InChI=1S/C21H43NO6/c1-3-4-5-6-7-8-9-10-11-12-13-14-15-22(2)21(28)20(27)19(26)18(25)17(24)16-23/h17-20,23-27H,3-16H2,1-2H3/t17-,18-,19+,20-/m1/s1",OGUODBFRSCMWFE-YSTOQKLRSA-N,405.309038096
CCCCCCCCCCCCCCN(C)C(=O)[C@H](O)[C@@H](O)[C@H](O[C@@H]1O[C@H](C)[C@H](O)[C@H](O)[C@H]1O)[C@H](O)CO,sugar-based non-ionic,0.000036,4.44369749923271,35.7,0.00000376,0.44,37.1,5.4,0.00000398,20,10.1021/acs.iecr.6b02890,10.1016/j.jcis.2018.01.051,10.1016/j.molliq.2018.01.037,,10.1006/jcis.2001.7704,10.1006/jcis.2001.7704,10.1006/jcis.2001.7704,10.1006/jcis.2001.7704,,N-tetradecyl-N-methyllactobionamide,"InChI=1S/C27H53NO10/c1-4-5-6-7-8-9-10-11-12-13-14-15-16-28(3)26(36)23(34)22(33)25(19(30)17-29)38-27-24(35)21(32)20(31)18(2)37-27/h18-25,27,29-35H,4-17H2,1-3H3/t18-,19-,20+,21+,22-,23-,24-,25-,27+/m1/s1",DVYQCQIOAZSVGO-FGIGEDFMSA-N,551.366946896
CCCCCCCCCCCCCCN=Cc1ccc([N+](C)(CC)CC)cc1.[I-],cationic,0.00135,2.86966623150499,40.8,0.00000648,0.26,31,3.02103981229641,0.0487505006281119,25,10.1007/s11743-009-1156-0,10.1016/j.ces.2022.118208,,10.1201/9780203911518,10.1007/s11743-009-1156-0,10.1007/s11743-009-1156-0,10.1007/s11743-009-1156-0,calculated,calculated,4-diethylaminobenzaldehyde-1-tetradecylamine,"InChI=1S/C26H47N2.HI/c1-5-8-9-10-11-12-13-14-15-16-17-18-23-27-24-25-19-21-26(22-20-25)28(4,6-2)7-3;/h19-22,24H,5-18,23H2,1-4H3;1H/q+1;/p-1",FNWVTMRXWQATES-UHFFFAOYSA-M,514.278397504
CCCCCCCCCCCCCCNC(=O)C(O)C(O)C(OC1OC(O)C(O)C(O)C1O)C(O)CO,sugar-based non-ionic,0.0000364,4.43889861635094,34.9,0.00000376,0.44,37.1,5.4,0.00000396,20,10.1021/acs.iecr.6b02890,,10.1006/jcis.2001.7704,,10.1006/jcis.2001.7704,10.1006/jcis.2001.7704,10.1006/jcis.2001.7704,10.1006/jcis.2001.7704,,,"InChI=1S/C25H49NO11/c1-2-3-4-5-6-7-8-9-10-11-12-13-14-26-23(34)19(31)18(30)22(16(28)15-27)36-25-21(33)17(29)20(32)24(35)37-25/h16-22,24-25,27-33,35H,2-15H2,1H3,(H,26,34)",NLPSAHVBAOSJCB-UHFFFAOYSA-N,539.330561388
CCCCCCCCCCCCCCNC(=O)C([N+])CCCNC([N+])N.[Cl-].[Cl-],gemini cationic,0.0007,3.15490195998574,33,0.00000097,1.14,39,4.29856391795326,0.0135880585743328,25,10.1016/j.crci.2004.02.009,10.1016/j.ces.2022.118208,,10.1016/j.crci.2004.02.009,10.1016/j.crci.2004.02.009,10.1016/j.crci.2004.02.009,10.1016/j.crci.2004.02.009,calculated,calculated,Arginine-N-octylamidedihydrochloride,"InChI=1S/C20H41N5O.2ClH/c1-2-3-4-5-6-7-8-9-10-11-12-13-16-24-19(26)18(21)15-14-17-25-20(22)23;;/h18,20,25H,2-17,22H2,1H3,(H,24,26);2*1H/q+2;;/p-2",GZDXXBRLTTURFE-UHFFFAOYSA-L,437.268816292
CCCCCCCCCCCCCCNC(=O)C[N+](C)(C)CCNC(=O)COc1ccccc1.[Cl-],cationic,0.000206,3.68613277963085,37.8,0.00000145,1.14,34.2,4.6,0.0000251,25,10.1039/C4RA14645J,10.1016/j.ces.2022.118208,,10.1039/C4RA14645J,10.1039/C4RA14645J,10.1039/C4RA14645J,10.1039/C4RA14645J,,10.1039/C4RA14645J,"N-tetradecylcaramoylmethyl-N-[2-(2-phenoxyacetamido)-ethyl]-N,Ndimethylammoniumchloride","InChI=1S/C28H49N3O3.ClH/c1-4-5-6-7-8-9-10-11-12-13-14-18-21-29-27(32)24-31(2,3)23-22-30-28(33)25-34-26-19-16-15-17-20-26;/h15-17,19-20H,4-14,18,21-25H2,1-3H3,(H-,29,30,32,33);1H",GHIMACXJMLXXHP-UHFFFAOYSA-N,511.35407014
CCCCCCCCCCCCCCOC(=O)CCS(=O)(=O)[O-].[Na+],anionic,0.0008995,3.04599883231843,,,,,,,25,10.1021/ci600462d,,,,,,,,,,"InChI=1S/C17H34O5S.Na/c1-2-3-4-5-6-7-8-9-10-11-12-13-15-22-17(18)14-16-23(19,20)21;/h2-16H2,1H3,(H,19,20,21);/q;+1/p-1",FSNHZBRUMZTCAL-UHFFFAOYSA-M,372.194639436
CCCCCCCCCCCCCCOC(=O)CS(=O)(=O)[O-].[Na+],anionic,0.01033,1.98589967848038,,,,,,,25,10.1021/ci600462d,,,,,,,,,sodium-2-oxo-2-tetradecoxyethanesulfonate,"InChI=1S/C16H32O5S.Na/c1-2-3-4-5-6-7-8-9-10-11-12-13-14-21-16(17)15-22(18,19)20;/h2-15H2,1H3,(H,18,19,20);/q;+1/p-1",IIJXVXYJSCOOAR-UHFFFAOYSA-M,358.178989372
CCCCCCCCCCCCCCOC(=O)C[N+](C)(C)CCCN=Cc1ccccc1O.[Cl-],cationic,,,33,,,,,,,,10.1016/j.ces.2022.118208,,10.1039/C5RA21626E,,,,,,,"InChI=1S/C28H48N2O3.ClH/c1-4-5-6-7-8-9-10-11-12-13-14-17-23-33-28(32)25-30(2,3)22-18-21-29-24-26-19-15-16-20-27(26)31;/h15-16,19-20,24H,4-14,17-18,21-23,25H2,1-3H3;1H",IDLXNPBSSKLFOC-UHFFFAOYSA-N,496.343171108
CCCCCCCCCCCCCCOC(=O)C[N+]1(C)CCCC1.[Br-],cationic,0.00107,2.97061622231479,32.1,0.00000155,1.07,39.68,4.08,0.0000831,25,10.1007/s00396-013-2971-4,10.1016/j.ces.2022.118208,,10.1007/s00396-013-2971-4,10.1007/s00396-013-2971-4,10.1007/s00396-013-2971-4,10.1007/s00396-013-2971-4,10.1007/s00396-013-2971-4,10.1007/s00396-013-2971-4,1-Methyl-1-(2-oxo-2-(tetradecyloxy)ethyl)pyrrolidin-1-iumbromide,"InChI=1S/C21H42NO2.BrH/c1-3-4-5-6-7-8-9-10-11-12-13-16-19-24-21(23)20-22(2)17-14-15-18-22;/h3-20H2,1-2H3;1H/q+1;/p-1",SKIOOOMZYAUWMM-UHFFFAOYSA-M,419.239891684
CCCCCCCCCCCCCCOC(=O)C[N+]1(C)CCCC1.[Cl-],cationic,0.00144,2.84163750790475,35.5,0.000002,0.83,36.28,3.55,0.000281,25,10.1007/s00396-013-2971-4,10.1016/j.ces.2022.118208,,10.1007/s00396-013-2971-4,10.1007/s00396-013-2971-4,10.1007/s00396-013-2971-4,10.1007/s00396-013-2971-4,10.1007/s00396-013-2971-4,10.1007/s00396-013-2971-4,1-Methyl-1-(2-oxo-2-(tetradecyloxy)ethyl)pyrrolidin-1-iumchloride,"InChI=1S/C21H42NO2.ClH/c1-3-4-5-6-7-8-9-10-11-12-13-16-19-24-21(23)20-22(2)17-14-15-18-22;/h3-20H2,1-2H3;1H/q+1;/p-1",ADEBXFPWHLVVEI-UHFFFAOYSA-M,375.290407264
CCCCCCCCCCCCCCOC(=O)C[n+]1c(N=Cc2ccc(OC)cc2)sc2ccccc21.[Br-],cationic,0.106,0.97469413473523,42.1,,,29.9,,,25,10.1080/01932691003756902,10.1016/j.ces.2022.118208,,10.1080/01932691003756902,,,,,,"2-[(4-methoxybenzylidene)amino]-3-(2-oxo-2-tetradecyloxyethyl)-1,3-benzothiazol-3-iumBromide","InChI=1S/C31H43N2O3S.BrH/c1-3-4-5-6-7-8-9-10-11-12-13-16-23-36-30(34)25-33-28-17-14-15-18-29(28)37-31(33)32-24-26-19-21-27(35-2)22-20-26;/h14-15,17-22,24H,3-13,16,23,25H2,1-2H3;1H/q+1;/p-1",WSMYJAHKSPXCGW-UHFFFAOYSA-M,602.217776336
CCCCCCCCCCCCCCOC(=O)C[n+]1c(N=Cc2ccccc2)sc2ccccc21.[Br-],cationic,0.117,0.931814138253838,42.3,,,29.7,,,25,10.1080/01932691003756902,10.1016/j.ces.2022.118208,,10.1080/01932691003756902,,,,,,"2-(benzylideneamino)-3-(2-oxo-2-tetradecyloxyethyl)-1,3-benzothiazol-3-iumbromide","InChI=1S/C30H41N2O2S.BrH/c1-2-3-4-5-6-7-8-9-10-11-12-18-23-34-29(33)25-32-27-21-16-17-22-28(27)35-30(32)31-24-26-19-14-13-15-20-26;/h13-17,19-22,24H,2-12,18,23,25H2,1H3;1H/q+1;/p-1",ZQOXUKAFGKHKIE-UHFFFAOYSA-M,572.207211652
CCCCCCCCCCCCCCOC(=O)C[n+]1ccc(CCCc2cc[n+](CC(=O)OCCCCCCCCCCCCCC)cc2)cc1.[Br-].[Br-],gemini cationic,0.0001211,3.91685585685695,,,,,,,25,10.1063/5.0051623,,,,,,,,,,"InChI=1S/C45H76N2O4.2BrH/c1-3-5-7-9-11-13-15-17-19-21-23-25-38-50-44(48)40-46-34-30-42(31-35-46)28-27-29-43-32-36-47(37-33-43)41-45(49)51-39-26-24-22-20-18-16-14-12-10-8-6-4-2;;/h30-37H,3-29,38-41H2,1-2H3;2*1H/q+2;;/p-2",JFQZSZAEHNRQBJ-UHFFFAOYSA-L,866.417183112
CCCCCCCCCCCCCCOC(=O)C[n+]1ccc(CCCc2cc[n+](CC(=O)OCCCCCCCCCCCCCC)cc2)cc1.[Cl-].[Cl-],gemini cationic,0.0001439,3.8419392060634,,,,,,,25,10.1063/5.0051623,,10.1002/9781119075691.ch43,,,,,,,,"InChI=1S/C45H76N2O4.2ClH/c1-3-5-7-9-11-13-15-17-19-21-23-25-38-50-44(48)40-46-34-30-42(31-35-46)28-27-29-43-32-36-47(37-33-43)41-45(49)51-39-26-24-22-20-18-16-14-12-10-8-6-4-2;;/h30-37H,3-29,38-41H2,1-2H3;2*1H/q+2;;/p-2",WVCDNJXRCHSODY-UHFFFAOYSA-L,778.518214272
CCCCCCCCCCCCCCOC(=O)C[n+]1oc(C)cc1N=Cc1ccccc1.[Br-],cationic,,,39,,,,,,,,10.1016/j.ces.2022.118208,,10.1016/j.corsci.2011.06.029,,,,,,,"InChI=1S/C27H41N2O3.BrH/c1-3-4-5-6-7-8-9-10-11-12-13-17-20-31-27(30)23-29-26(21-24(2)32-29)28-22-25-18-15-14-16-19-25;/h14-16,18-19,21-22H,3-13,17,20,23H2,1-2H3;1H/q+1;/p-1",FHPDRZLMDSDNPW-UHFFFAOYSA-M,520.230055272
CCCCCCCCCCCCCCOCC(CCC[N+](C)(C)C)(CCC[N+](C)(C)C)COCCCCCCCCCCCCCC.[I-].[I-],gemini cationic,0.000006,5.22184874961636,33,0.00000277,0.6,39,5.69,0.00000204,25,10.1016/j.jcis.2014.02.017,10.1016/j.ces.2022.118208,,10.1016/j.jcis.2014.02.017,10.1016/j.jcis.2014.02.017,10.1016/j.jcis.2014.02.017,10.1016/j.jcis.2014.02.017,10.1016/j.jcis.2014.02.017,10.1016/j.jcis.2014.02.017,"4,4-bis(tetradecyloxymethyl)-N,N,N,N',N',N'-hexamethyl-1,7-heptanediammoniumdiiodide","InChI=1S/C43H92N2O2.2HI/c1-9-11-13-15-17-19-21-23-25-27-29-31-39-46-41-43(35-33-37-44(3,4)5,36-34-38-45(6,7)8)42-47-40-32-30-28-26-24-22-20-18-16-14-12-10-2;;/h9-42H2,1-8H3;2*1H/q+2;;/p-2",YGSITQQXHBITSG-UHFFFAOYSA-L,922.524826184
CCCCCCCCCCCCCCOCC(CC[N+](C)(C)C)(CC[N+](C)(C)C)COCCCCCCCCCCCCCC.[I-].[I-],gemini cationic,0.00000305,5.51570016065321,23.5,0.00000237,0.7,48.5,6.19,0.000000646,25,10.1016/j.jcis.2014.02.017,10.1016/j.ces.2022.118208,,10.1016/j.jcis.2014.02.017,10.1016/j.jcis.2014.02.017,10.1016/j.jcis.2014.02.017,10.1016/j.jcis.2014.02.017,10.1016/j.jcis.2014.02.017,10.1016/j.jcis.2014.02.017,"3,3-bis(tetradecyloxymethyl)-N,N,N,N',N',N'-hexamethyl-1,5-pentanediammoniumdiiodide","InChI=1S/C41H88N2O2.2HI/c1-9-11-13-15-17-19-21-23-25-27-29-31-37-44-39-41(33-35-42(3,4)5,34-36-43(6,7)8)40-45-38-32-30-28-26-24-22-20-18-16-14-12-10-2;;/h9-40H2,1-8H3;2*1H/q+2;;/p-2",VEBWVPKAVBJTAQ-UHFFFAOYSA-L,894.493526056
CCCCCCCCCCCCCCOCC(COCCCCCCCCCCCCCC)(COCCC[N+](C)(C)C)COCCC[N+](C)(C)C.[I-].[I-],gemini cationic,0.00000316,5.5003129173816,35,0.00000237,0.7,37,5.8,0.00000158,25,10.1016/j.jcis.2014.02.017,10.1016/j.ces.2022.118208,,10.1016/j.jcis.2014.02.017,10.1016/j.jcis.2014.02.017,10.1016/j.jcis.2014.02.017,10.1016/j.jcis.2014.02.017,10.1016/j.jcis.2014.02.017,10.1016/j.jcis.2014.02.017,"6,6-bis(tetradecyloxymethyl)-N,N,N,N',N',N'-hexamethyl-4,8-dioxa-1,11-undecanediammoniumdiiodide","InChI=1S/C45H96N2O4.2HI/c1-9-11-13-15-17-19-21-23-25-27-29-31-37-48-41-45(43-50-39-33-35-46(3,4)5,44-51-40-34-36-47(6,7)8)42-49-38-32-30-28-26-24-22-20-18-16-14-12-10-2;;/h9-44H2,1-8H3;2*1H/q+2;;/p-2",WRPAAUSGECEFAD-UHFFFAOYSA-L,982.545955552
CCCCCCCCCCCCCCOCC(COCCCCCCCCCCCCCC)(COCC[N+](C)(C)C)COCC[N+](C)(C)C.[I-].[I-],gemini cationic,0.00000286,5.54363396687096,32.7,0.00000332,0.5,39.3,5.97,0.00000107,25,10.1016/j.jcis.2014.02.017,10.1016/j.ces.2022.118208,,10.1016/j.jcis.2014.02.017,10.1016/j.jcis.2014.02.017,10.1016/j.jcis.2014.02.017,10.1016/j.jcis.2014.02.017,10.1016/j.jcis.2014.02.017,10.1016/j.jcis.2014.02.017,"5,5-bis(tetradecyloxymethyl)-N,N,N,N',N',N'-hexamethyl-3,7-dioxa-1,9-nonanediammoniumdiiodide","InChI=1S/C43H92N2O4.2HI/c1-9-11-13-15-17-19-21-23-25-27-29-31-35-46-39-43(41-48-37-33-44(3,4)5,42-49-38-34-45(6,7)8)40-47-36-32-30-28-26-24-22-20-18-16-14-12-10-2;;/h9-42H2,1-8H3;2*1H/q+2;;/p-2",XLRMJHJBKUJBMJ-UHFFFAOYSA-L,954.514655424
CCCCCCCCCCCCCCOCC(COCCCCCCCCCCCCCC)(C[N+](C)(C)C)C[N+](C)(C)C.[I-].[I-],gemini cationic,0.00000071,6.14874165128092,39.1,0.00000554,0.3,32.9,6.27,0.000000537,25,10.1016/j.jcis.2014.02.017,10.1016/j.ces.2022.118208,,10.1016/j.jcis.2014.02.017,10.1016/j.jcis.2014.02.017,10.1016/j.jcis.2014.02.017,10.1016/j.jcis.2014.02.017,10.1016/j.jcis.2014.02.017,10.1016/j.jcis.2014.02.017,"2,2-bis(tetradecyloxymethyl)-N,N,N,N',N',N'-hexamethyl-1,3-propanediammoniumdiiodide","InChI=1S/C39H84N2O2.2HI/c1-9-11-13-15-17-19-21-23-25-27-29-31-33-42-37-39(35-40(3,4)5,36-41(6,7)8)38-43-34-32-30-28-26-24-22-20-18-16-14-12-10-2;;/h9-38H2,1-8H3;2*1H/q+2;;/p-2",RWICAXKOCLZKHQ-UHFFFAOYSA-L,866.462225928
CCCCCCCCCCCCCCOCC(O)C[N+](C)(C)CCCC[N+](C)(C)CC(O)COCCCCCCCCCCCCCC.[Br-].[Br-],gemini cationic,0.00001,5,37.4,0.00000216,0.77,34.6,5.59,0.0000025,25,10.1007/s11743-015-1734-2,10.1016/j.ces.2022.118208,,10.1007/s11743-015-1734-2,10.1007/s11743-015-1734-2,,10.1007/s11743-015-1734-2,10.1007/s11743-015-1734-2,,"Butanediyl-bis[N-(3-tetradecoxyl-2-hydroxy)propyl-N,NdimethylammoniumBromide]","InChI=1S/C42H90N2O4.2BrH/c1-7-9-11-13-15-17-19-21-23-25-27-31-35-47-39-41(45)37-43(3,4)33-29-30-34-44(5,6)38-42(46)40-48-36-32-28-26-24-22-20-18-16-14-12-10-8-2;;/h41-42,45-46H,7-40H2,1-6H3;2*1H/q+2;;/p-2",GPDKHRCJRHGSIS-UHFFFAOYSA-L,844.52673356
CCCCCCCCCCCCCCOCC(O)C[n+]1ccn(C)c1.[Br-],cationic,0.00035,3.45593195564972,29.3,0.00000189,0.88,42.48,3.9,0.000125,25,10.1016/j.colsurfa.2011.11.022,10.1016/j.ces.2022.118208,,10.1016/j.colsurfa.2011.11.022,10.1016/j.colsurfa.2011.11.022,10.1016/j.colsurfa.2011.11.022,10.1016/j.colsurfa.2011.11.022,10.1016/j.colsurfa.2011.11.022,10.1016/j.colsurfa.2011.11.022,3-(3-(hexadecyloxy)-2-hydroxypropyl)-1-methyl-1Himidazol-3-iumchloride,"InChI=1S/C21H41N2O2.BrH/c1-3-4-5-6-7-8-9-10-11-12-13-14-17-25-19-21(24)18-23-16-15-22(2)20-23;/h15-16,20-21,24H,3-14,17-19H2,1-2H3;1H/q+1;/p-1",MIIZPQNTBYCJGT-UHFFFAOYSA-M,432.235140652
CCCCCCCCCCCCCCOCC(O)C[n+]1ccn(C)c1.[Cl-],cationic,0.00346,2.46092390120722,31.1,0.0000018,0.92,40.68,3.92,0.00012,25,10.1016/j.colsurfa.2011.11.022,10.1016/j.ces.2022.118208,,10.1016/j.colsurfa.2011.11.022,10.1016/j.colsurfa.2011.11.022,10.1016/j.colsurfa.2011.11.022,10.1016/j.colsurfa.2011.11.022,10.1016/j.colsurfa.2011.11.022,10.1016/j.colsurfa.2011.11.022,3-(3-(dodecyloxy)-2-hydroxypropyl)-1-methyl-1H-imidazol3-iumbromide,"InChI=1S/C21H41N2O2.ClH/c1-3-4-5-6-7-8-9-10-11-12-13-14-17-25-19-21(24)18-23-16-15-22(2)20-23;/h15-16,20-21,24H,3-14,17-19H2,1-2H3;1H/q+1;/p-1",ZKYZUOHUDUKADK-UHFFFAOYSA-M,388.285656232
CCCCCCCCCCCCCCOCC(O)Cn1cc[n+](CCC)c1.[Br-],cationic,0.000149,3.82681373158773,35.9,0.00000166,1.14,36.32,1.31,0.049,25,10.1016/j.jiec.2014.01.032,10.1016/j.ces.2022.118208,,10.1016/j.jiec.2014.01.032,10.1016/j.jiec.2014.01.032,10.1016/j.jiec.2014.01.032,10.1016/j.jiec.2014.01.032,,10.1016/j.jiec.2014.01.032,1-(3-Tetradecyloxy)-2-hydroxypropyl)-3-propyl-1H-imidazol-3-iumbromide,"InChI=1S/C23H45N2O2.BrH/c1-3-5-6-7-8-9-10-11-12-13-14-15-19-27-21-23(26)20-25-18-17-24(22-25)16-4-2;/h17-18,22-23,26H,3-16,19-21H2,1-2H3;1H/q+1;/p-1",RATQSAWZOSLCCC-UHFFFAOYSA-M,460.26644078
CCCCCCCCCCCCCCOCC(O)Cn1cc[n+](CCC)c1.[Cl-],cationic,0.000169,3.77211329538633,31.5,0.00000155,1.13,40.69,1.33,0.047,25,10.1016/j.jiec.2014.01.032,10.1016/j.ces.2022.118208,,10.1016/j.jiec.2014.01.032,10.1016/j.jiec.2014.01.032,10.1016/j.jiec.2014.01.032,10.1016/j.jiec.2014.01.032,,10.1016/j.jiec.2014.01.032,1-(3-(Tetradecyloxy)-2-hydroxypropyl)-3-propyl-1H-imidazol-3-iumchloride,"InChI=1S/C23H45N2O2.ClH/c1-3-5-6-7-8-9-10-11-12-13-14-15-19-27-21-23(26)20-25-18-17-24(22-25)16-4-2;/h17-18,22-23,26H,3-16,19-21H2,1-2H3;1H/q+1;/p-1",HBQCVAQPTPFAGX-UHFFFAOYSA-M,416.31695636
CCCCCCCCCCCCCCOCC(O)Cn1cc[n+](CCC[n+]2ccn(CC(O)COCCCCCCCCCCCCCC)c2)c1.[Br-].[Br-],gemini cationic,0.00007096,4.14898639317633,44.5,0.00000299,0.06,27.81,0.93,0.117,25,10.1007/s11743-013-1472-2,10.1016/j.ces.2022.118208,,10.1007/s11743-013-1472-2,10.1007/s11743-013-1472-2,10.1007/s11743-013-1472-2,10.1007/s11743-013-1472-2,,10.1007/s11743-013-1472-2,"1,3-bis(1(3-alkoxy-2-hydroxypropyl)-1H-imidazol-3-ium)propanebromide","InChI=1S/C43H82N4O4.2BrH/c1-3-5-7-9-11-13-15-17-19-21-23-25-34-50-38-42(48)36-46-32-30-44(40-46)28-27-29-45-31-33-47(41-45)37-43(49)39-51-35-26-24-22-20-18-16-14-12-10-8-6-4-2;;/h30-33,40-43,48-49H,3-29,34-39H2,1-2H3;2*1H/q+2;;/p-2",DYXOBTJZDPSKQQ-UHFFFAOYSA-L,876.470281304
CCCCCCCCCCCCCCOCC(O)Cn1cc[n+](CC[n+]2ccn(CC(O)COCCCCCCCCCCCCCC)c2)c1.[Br-].[Br-],gemini cationic,0.000234,3.63078414258986,43.5,0.00000322,0.05,28.89,1.46,0.035,25,10.1007/s11743-013-1472-2,10.1016/j.ces.2022.118208,,10.1007/s11743-013-1472-2,10.1007/s11743-013-1472-2,10.1007/s11743-013-1472-2,10.1007/s11743-013-1472-2,,10.1007/s11743-013-1472-2,"1,2-bis(1(3-alkoxy2-hydroxypropyl)-1H-imidazol-3-ium)ethanebromide","InChI=1S/C42H80N4O4.2BrH/c1-3-5-7-9-11-13-15-17-19-21-23-25-33-49-37-41(47)35-45-31-29-43(39-45)27-28-44-30-32-46(40-44)36-42(48)38-50-34-26-24-22-20-18-16-14-12-10-8-6-4-2;;/h29-32,39-42,47-48H,3-28,33-38H2,1-2H3;2*1H/q+2;;/p-2",NPFGCLJKDLBGBI-UHFFFAOYSA-L,862.45463124
CCCCCCCCCCCCCCOCCOCCOCCOCCOCCOCCO,non-ionic,0.00001,5,32.2,,,39.8,,,25,10.1021/acs.jpcb.1c05264,10.1016/j.ces.2022.118208,10.1002/9781118228920,10.1039/F19757100217,,,,,,2-[2-[2-[2-[2-(2-tetradecoxyethoxy)ethoxy]ethoxy]ethoxy]ethoxy]ethanol,"InChI=1S/C26H54O7/c1-2-3-4-5-6-7-8-9-10-11-12-13-15-28-17-19-30-21-23-32-25-26-33-24-22-31-20-18-29-16-14-27/h27H,2-26H2,1H3",CMOAVXMJUDBIST-UHFFFAOYSA-N,478.386954068
CCCCCCCCCCCCCCOCCOCCOCCOCCOCCOCCOCCOCCO,non-ionic,0.000009,5.04575749056068,33.8,0.00000333,0.5,38.2,6.00309310961988,0.0024710969697638,25,10.1021/acs.jpcb.1c05264,10.1016/j.ces.2022.118208,10.1002/9781118228920,10.1002/0471670561,10.1007/BF01419322,,10.1007/BF01419322,calculated,calculated,2-[2-[2-[2-[2-[2-[2-(2-tetradecoxyethoxy)ethoxy]ethoxy]ethoxy]ethoxy]ethoxy]ethoxy]ethanol,"InChI=1S/C30H62O9/c1-2-3-4-5-6-7-8-9-10-11-12-13-15-32-17-19-34-21-23-36-25-27-38-29-30-39-28-26-37-24-22-35-20-18-33-16-14-31/h31H,2-30H2,1H3",NHHAZFYVKWSFIR-UHFFFAOYSA-N,566.439383564
CCCCCCCCCCCCCCOCCOCC[N+](C)(C)C.[Br-],cationic,0.00092,3.03621217265445,44.3,,0.93,28.3,,,25,10.1016/0927-7757(95)03093-S,10.1016/j.ces.2022.118208,,10.1007/BF01550555,,10.1016/0927-7757(95)03093-S,10.1016/0927-7757(95)03093-S,,,,"InChI=1S/C21H46NO2.BrH/c1-5-6-7-8-9-10-11-12-13-14-15-16-18-23-20-21-24-19-17-22(2,3)4;/h5-21H2,1-4H3;1H/q+1;/p-1",LHOKBJRWWDDYBF-UHFFFAOYSA-M,423.271191812
CCCCCCCCCCCCCCOCCOS(=O)(=O)[O-].[Na+],anionic,0.00139,2.85698519974591,32,0.0000021,0.79,40,3.8,0.000158,25,10.1002/9781118228920.ch3,,,,10.1002/9781118228920.ch5,10.1002/9781118228920.ch5,,,,sodium-2-tetradecoxyethylsulfate,"InChI=1S/C16H34O5S.Na/c1-2-3-4-5-6-7-8-9-10-11-12-13-14-20-15-16-21-22(17,18)19;/h2-16H2,1H3,(H,17,18,19);/q;+1/p-1",XYWGYCTUGYVSIZ-UHFFFAOYSA-M,360.194639436
CCCCCCCCCCCCCCOOCCOCCOCCOCCOCCOCC,non-ionic,0.00001,5,,,,,,,25,10.1021/ie4016232,,,,,,,,,,"InChI=1S/C26H54O7/c1-3-5-6-7-8-9-10-11-12-13-14-15-16-32-33-26-25-31-24-23-30-22-21-29-20-19-28-18-17-27-4-2/h3-26H2,1-2H3",DSSGBKKPNVBAFX-UHFFFAOYSA-N,478.386954068
CCCCCCCCCCCCCCOOCCOCCOCCOCCOCCOCCOCCOCC,non-ionic,0.000008995,5.04599883231843,34,,,38,,,25,10.1021/ie4016232,10.1081/DIS-200054572,,,,,,,,,"InChI=1S/C30H62O9/c1-3-5-6-7-8-9-10-11-12-13-14-15-16-38-39-30-29-37-28-27-36-26-25-35-24-23-34-22-21-33-20-19-32-18-17-31-4-2/h3-30H2,1-2H3",YLEFIWXVPMJAAX-UHFFFAOYSA-N,566.439383564
CCCCCCCCCCCCCCOOCCOCCOCCOCCOCCOCCOCCOCCOCC,non-ionic,0.000008995,5.04599883231843,,,,,,,25,10.1021/ie4016232,,,,,,,,,,"InChI=1S/C32H66O10/c1-3-5-6-7-8-9-10-11-12-13-14-15-16-41-42-32-31-40-30-29-39-28-27-38-26-25-37-24-23-36-22-21-35-20-19-34-18-17-33-4-2/h3-32H2,1-2H3",BENHQGBEPLZYIX-UHFFFAOYSA-N,610.465598312
CCCCCCCCCCCCCCOP(=O)([O-])OCC[N+](C)(C)CCCCCCCC,gemini zwitterionic,8.00018444855099E-06,5.0969,,,,,,,25,10.1016/j.chemosphere.2011.05.031,,,,,,,,,,"InChI=1S/C26H56NO4P/c1-5-7-9-11-13-14-15-16-17-18-20-22-25-30-32(28,29)31-26-24-27(3,4)23-21-19-12-10-8-6-2/h5-26H2,1-4H3",WOGOTDVDKZZNLM-UHFFFAOYSA-N,477.394695902
CCCCCCCCCCCCCCOP(=O)([O-])OCC[N+](C)(C)CCCCCCCCCC,gemini zwitterionic,5.50047252867634E-06,5.2596,,,,,,,25,10.1016/j.chemosphere.2011.05.031,,,,,,,,,,"InChI=1S/C28H60NO4P/c1-5-7-9-11-13-15-16-17-18-20-22-24-27-32-34(30,31)33-28-26-29(3,4)25-23-21-19-14-12-10-8-6-2/h5-28H2,1-4H3",PQWGVLCLJHYCIT-UHFFFAOYSA-N,505.42599603
CCCCCCCCCCCCCCOP(=O)([O-])OCC[N+](C)(C)CCCCCCCCCCCC,gemini zwitterionic,7.00003159130898E-06,5.1549,,,,,,,25,10.1016/j.chemosphere.2011.05.031,,,,,,,,,,"InChI=1S/C30H64NO4P/c1-5-7-9-11-13-15-17-18-20-22-24-26-29-34-36(32,33)35-30-28-31(3,4)27-25-23-21-19-16-14-12-10-8-6-2/h5-30H2,1-4H3",RWLDGUNRSZFPCW-UHFFFAOYSA-N,533.457296158
CCCCCCCCCCCCCCOS(=O)(=O)[O-].[Na+],anionic,0.0021,2.67778070526608,34.8,,,37.2,3.09,0.000808,25,10.1002/9781118228920,,10.1002/9781118228920,,10.1002/9781118228920.ch5,,,,,sodium-tetradecylsulfate,"InChI=1S/C14H30O4S.Na/c1-2-3-4-5-6-7-8-9-10-11-12-13-14-18-19(15,16)17;/h2-14H2,1H3,(H,15,16,17);/q;+1/p-1",UPUIQOIQVMNQAP-UHFFFAOYSA-M,316.168424688