SMILES,Surfactant_Type,CMC,pCMC,AW_ST_CMC,Gamma_max,Area_min,Pi_CMC,pC20,C20,Temp_Celsius,Ref_CMC,Ref_AW_ST_CMC,SubRef_CMC,SubRef_AW_ST_CMC,Ref_Gamma_max,Ref_Pi_CMC,Ref_Area_min,Ref_pC20,Ref_C20,IUPAC_name,InChI,InChIKey,Molecular_Weight
CCCCCCCCCCCC[N+](C)(C)CC(=O)NCCN(CCNC(=O)C[N+](C)(C)CCCCCCCCCCCC)C(=O)C[N+](C)(C)CCCCCCCCCCCC.[Cl-].[Cl-].[Cl-],gemini cationic,,,45,,,,,,,,10.1016/j.ces.2022.118208,,10.1021/la9048067,,,,,,,"InChI=1S/C52H107N6O3.3ClH/c1-10-13-16-19-22-25-28-31-34-37-44-56(4,5)47-50(59)53-40-42-55(52(61)49-58(8,9)46-39-36-33-30-27-24-21-18-15-12-3)43-41-54-51(60)48-57(6,7)45-38-35-32-29-26-23-20-17-14-11-2;;;/h10-49H2,1-9H3;3*1H/q+1;;;/p-1",BTBBLOIOPJMOPT-UHFFFAOYSA-M,970.762674388
CCCCCCCCCCCC[N+](C)(C)CC(=O)NCCN(CCNC(=O)C[N+](C)(C)CCCCCCCCCCCC)CCNC(=O)C[N+](C)(C)CCCCCCCCCCCC.[Cl-].[Cl-].[Cl-],gemini cationic,,,42,,,,,,,,10.1016/j.ces.2022.118208,,10.1021/la9048067,,,,,,,"InChI=1S/C54H111N7O3.3ClH/c1-10-13-16-19-22-25-28-31-34-37-46-59(4,5)49-52(62)55-40-43-58(44-41-56-53(63)50-60(6,7)47-38-35-32-29-26-23-20-17-14-11-2)45-42-57-54(64)51-61(8,9)48-39-36-33-30-27-24-21-18-15-12-3;;;/h10-51H2,1-9H3;3*1H",SXMCNDPBVBIBIZ-UHFFFAOYSA-N,1013.804873548
CCCCCCCCCCCC[N+](C)(C)CC(=O)NCCNC(=O)C[N+](C)(C)CCCCCCCCCCCC.[Cl-].[Cl-],gemini cationic,0.0009068,3.04248848854552,42.79,0.00000168,1.48,28.39,3.47,0.000343,29.85,10.1016/j.molliq.2015.01.055,10.1016/j.ces.2022.118208,,10.1016/j.molliq.2015.01.055,10.1016/j.molliq.2015.01.055,calculated,10.1016/j.molliq.2015.01.055,10.1016/j.molliq.2015.01.055,,"Ethane-1,2-diylbis(N,N-dimethyl-N-dodecyl-ammoniumacetoamide)dichloride","InChI=1S/C34H70N4O2.2ClH/c1-7-9-11-13-15-17-19-21-23-25-29-37(3,4)31-33(39)35-27-28-36-34(40)32-38(5,6)30-26-24-22-20-18-16-14-12-10-8-2;;/h7-32H2,1-6H3;2*1H",RFHANDOPNCSKQB-UHFFFAOYSA-N,638.503232904
CCCCCCCCCCCC[N+](C)(C)CC(=O)Nc1ccccc1.[Cl-],cationic,0.00111,2.95467702121334,33.3,0.00000209,0.79,38.7,3.73,0.000186,25,10.1002/jsde.12221,10.1016/j.ces.2022.118208,,10.1002/jsde.12221,10.1002/jsde.12221,10.1002/jsde.12221,10.1002/jsde.12221,10.1002/jsde.12221,,"N,N-dimethyl-N-dodecyl-phenylcar-bamoylmethylammoniumchloride","InChI=1S/C22H38N2O.ClH/c1-4-5-6-7-8-9-10-11-12-16-19-24(2,3)20-22(25)23-21-17-14-13-15-18-21;/h13-15,17-18H,4-12,16,19-20H2,1-3H3;1H",CAIJCHDQILXAGD-UHFFFAOYSA-N,382.275091548
CCCCCCCCCCCC[N+](C)(C)CC(=O)Nc1nccs1.[Cl-],cationic,0.0024,2.61978875828839,35.1,0.00000147,1.13,36.87,3.63,0.000234,25,10.1002/jsde.12221,10.1016/j.ces.2022.118208,,10.1002/jsde.12221,10.1002/jsde.12221,10.1002/jsde.12221,10.1002/jsde.12221,10.1002/jsde.12221,,"N,N-dimethyl-N-dodecyl-2-thiazolylcarbamoylmethylammo-niumchloride","InChI=1S/C19H35N3OS.ClH/c1-4-5-6-7-8-9-10-11-12-13-15-22(2,3)17-18(23)21-19-20-14-16-24-19;/h14,16H,4-13,15,17H2,1-3H3;1H",YTOUNBIFDRQFDT-UHFFFAOYSA-N,389.226761452
CCCCCCCCCCCC[N+](C)(C)CC(=O)Nc1ncncc1[N].[Cl-],cationic,0.00608,2.21609642072727,39.6,0.00000167,0.99,32.4,2.87,0.00135,25,10.1002/jsde.12221,10.1002/jsde.12221,,,10.1002/jsde.12221,10.1002/jsde.12221,10.1002/jsde.12221,10.1002/jsde.12221,,"N,N-dimethyl-N-dodecyl-2-thiazolylcarbamoylmethylammoniumchloride","InChI=1S/C20H35N5O.ClH/c1-4-5-6-7-8-9-10-11-12-13-14-25(2,3)16-19(26)24-20-18(21)15-22-17-23-20;/h15,17H,4-14,16H2,1-3H3;1H",AIKINKFSTSZYIO-UHFFFAOYSA-N,397.260838452
CCCCCCCCCCCC[N+](C)(C)CC(=O)OCCCOC(=O)C[N+](C)(C)CCCCCCCCCCCC.[Cl-].[Cl-],gemini cationic,0.001649,2.78277934435548,47.87,0.00000226,0.74,24.12,3.01,0.00097,25,10.1016/j.molliq.2017.05.092,10.1016/j.ces.2022.118208,,10.1016/j.molliq.2017.05.092,10.1016/j.molliq.2017.05.092,,10.1016/j.molliq.2017.05.092,10.1016/j.molliq.2017.05.092,,"N,N-Dimethyldodecylamine","InChI=1S/C35H72N2O4.2ClH/c1-7-9-11-13-15-17-19-21-23-25-28-36(3,4)32-34(38)40-30-27-31-41-35(39)33-37(5,6)29-26-24-22-20-18-16-14-12-10-8-2;;/h7-33H2,1-6H3;2*1H/q+2;;/p-2",SINMNZFWPMECCJ-UHFFFAOYSA-L,654.486914144
CCCCCCCCCCCC[N+](C)(C)CC(=O)OCCN(CCOC(=O)C[N+](C)(C)CCCCCCCCCC)CCOC(=O)C[N+](C)(C)CCCCCCCCCC.[Br-].[Br-].[Br-],gemini cationic,0.000124,3.90657831483777,41.8,0.00000107,1.55,30.2,4.32401774224052,0.0132465552399646,25,10.1016/j.colsurfa.2014.06.019,10.1016/j.ces.2022.118208,,10.1016/j.colsurfa.2014.06.019,10.1016/j.colsurfa.2014.06.019,,10.1016/j.colsurfa.2014.06.019,calculated,calculated,"Triethanolaminetris(dimethyldodecylammonioacetate),tribromide","InChI=1S/C50H103N4O6.3BrH/c1-10-13-16-19-22-25-26-29-32-35-41-54(8,9)47-50(57)60-44-38-51(36-42-58-48(55)45-52(4,5)39-33-30-27-23-20-17-14-11-2)37-43-59-49(56)46-53(6,7)40-34-31-28-24-21-18-15-12-3;;;/h10-47H2,1-9H3;3*1H/q+3;;;/p-3",OBVOLYUOSUPKGR-UHFFFAOYSA-K,1092.542773316
CCCCCCCCCCCC[N+](C)(C)CC(=O)OCCOC(=O)C[N+](C)(C)CCCCCCCCCCCC.[Br-].[Br-],gemini cationic,,,29.1,,,,,,,,10.1016/j.ces.2022.118208,,10.1007/s00396-014-3233-9,,,,,,,"InChI=1S/C34H70N2O4.2BrH/c1-7-9-11-13-15-17-19-21-23-25-27-35(3,4)31-33(37)39-29-30-40-34(38)32-36(5,6)28-26-24-22-20-18-16-14-12-10-8-2;;/h7-32H2,1-6H3;2*1H/q+2;;/p-2",FJVVXIDGHSAVEX-UHFFFAOYSA-L,728.37023292
CCCCCCCCCCCC[N+](C)(C)CC(=O)OCCOC(=O)C[N+](C)(C)CCCCCCCCCCCC.[Cl-].[Cl-],gemini cationic,0.0007895,3.10264786565569,40.4,0.00000278,0.9,30.78,3.35,0.000447,29.85,10.1016/j.molliq.2015.01.055,10.1016/j.ces.2022.118208,,10.1016/j.molliq.2015.01.055,10.1016/j.molliq.2015.01.055,calculated,10.1016/j.molliq.2015.01.055,10.1016/j.molliq.2015.01.055,,"Ethane-1,2-diylbis(N,N-dimethyl-N-dodecyl-ammoniumacetoxy)dichloride","InChI=1S/C34H70N2O4.2ClH/c1-7-9-11-13-15-17-19-21-23-25-27-35(3,4)31-33(37)39-29-30-40-34(38)32-36(5,6)28-26-24-22-20-18-16-14-12-10-8-2;;/h7-32H2,1-6H3;2*1H/q+2;;/p-2",USQSWBZZAZJLPF-UHFFFAOYSA-L,640.47126408
CCCCCCCCCCCC[N+](C)(C)CC(=O)OCCOCCOC(=O)C[N+](C)(C)CCCCCCCCCCCC.[Br-].[Br-],gemini cationic,,,30.7,,,,,,,,10.1016/j.ces.2022.118208,,10.1007/s00396-014-3233-9,,,,,,,"InChI=1S/C36H74N2O5.2BrH/c1-7-9-11-13-15-17-19-21-23-25-27-37(3,4)33-35(39)42-31-29-41-30-32-43-36(40)34-38(5,6)28-26-24-22-20-18-16-14-12-10-8-2;;/h7-34H2,1-6H3;2*1H/q+2;;/p-2",LANDVNVHGBFEKY-UHFFFAOYSA-L,772.396447668
CCCCCCCCCCCC[N+](C)(C)CC(=O)OCCOCCOCCOC(=O)C[N+](C)(C)CCCCCCCCCCCC.[Br-].[Br-],gemini cationic,,,30.9,,,,,,,,10.1016/j.ces.2022.118208,,10.1007/s00396-014-3233-9,,,,,,,"InChI=1S/C38H78N2O6.2BrH/c1-7-9-11-13-15-17-19-21-23-25-27-39(3,4)35-37(41)45-33-31-43-29-30-44-32-34-46-38(42)36-40(5,6)28-26-24-22-20-18-16-14-12-10-8-2;;/h7-36H2,1-6H3;2*1H/q+2;;/p-2",YRMOOJJOLFWDNG-UHFFFAOYSA-L,816.422662416
CCCCCCCCCCCC[N+](C)(C)CC(=O)OCc1ccc(COC(=O)C[N+](C)(C)CCCCCCCCCCCC)cc1.[Cl-].[Cl-],gemini cationic,0.00058,3.23657200643706,41.1,0.00000089,1.86,30.9,3.24,0.000575,25,10.1007/s11743-015-1777-4,10.1016/j.ces.2022.118208,,10.1007/s11743-015-1777-4,10.1007/s11743-015-1777-4,,10.1007/s11743-015-1777-4,10.1007/s11743-015-1777-4,,,"InChI=1S/C40H74N2O4.2ClH/c1-7-9-11-13-15-17-19-21-23-25-31-41(3,4)33-39(43)45-35-37-27-29-38(30-28-37)36-46-40(44)34-42(5,6)32-26-24-22-20-18-16-14-12-10-8-2;;/h27-30H,7-26,31-36H2,1-6H3;2*1H/q+2;;/p-2",UOWRSABXUKITKD-UHFFFAOYSA-L,716.502564208
CCCCCCCCCCCC[N+](C)(C)CC(=O)Oc1ccc(OC(=O)C[N+](C)(C)CCCCCCCCCCCC)cc1.[Cl-].[Cl-],gemini cationic,0.00065,3.18708664335714,37.8,0.00000109,1.51,34.2,3.19,0.000646,25,10.1007/s11743-015-1777-4,10.1016/j.ces.2022.118208,,10.1007/s11743-015-1777-4,10.1007/s11743-015-1777-4,,10.1007/s11743-015-1777-4,10.1007/s11743-015-1777-4,,,"InChI=1S/C38H70N2O4.2ClH/c1-7-9-11-13-15-17-19-21-23-25-31-39(3,4)33-37(41)43-35-27-29-36(30-28-35)44-38(42)34-40(5,6)32-26-24-22-20-18-16-14-12-10-8-2;;/h27-30H,7-26,31-34H2,1-6H3;2*1H/q+2;;/p-2",ACTUYDKEZBLXCM-UHFFFAOYSA-L,688.47126408
CCCCCCCCCCCC[N+](C)(C)CC(=O)[O-],zwitterionic,0.002,2.69897000433602,33.24,0.00000357,0.46513699360612,36.3,,,23,10.1021/acs.jpcb.1c05264,,10.1002/9781118228920.ch3,,10.1002/9781118228920.ch5,10.1002/9781118228920.ch5,calculated,,10.1002/9781118228920.ch5,2-[dodecyl(dimethyl)azaniumyl]acetate,"InChI=1S/C16H33NO2/c1-4-5-6-7-8-9-10-11-12-13-14-17(2,3)15-16(18)19/h4-15H2,1-3H3",DVEKCXOJTLDBFE-UHFFFAOYSA-N,271.251129296
CCCCCCCCCCCC[N+](C)(C)CC(O)C(O)C[N+](C)(C)CCCCCCCCCCCC.[Br-].[Br-],gemini cationic,0.0006998,3.15502606185311,,,,,,,25,10.1063/5.0051623,,,,,,,,,,"InChI=1S/C32H70N2O2.2BrH/c1-7-9-11-13-15-17-19-21-23-25-27-33(3,4)29-31(35)32(36)30-34(5,6)28-26-24-22-20-18-16-14-12-10-8-2;;/h31-32,35-36H,7-30H2,1-6H3;2*1H/q+2;;/p-2",MKBFFSBRFWWHGY-UHFFFAOYSA-L,672.38040368
CCCCCCCCCCCC[N+](C)(C)CC(O)CC(O)[N+](C)(C)CCCCCCCCCCCC.[Br-].[Br-],gemini cationic,0.0007000031591308,3.15490000000006,,,,,,,25,10.1016/j.chemosphere.2011.05.031,,,,,,,,,,"InChI=1S/C32H70N2O2.2BrH/c1-7-9-11-13-15-17-19-21-23-25-27-33(3,4)30-31(35)29-32(36)34(5,6)28-26-24-22-20-18-16-14-12-10-8-2;;/h31-32,35-36H,7-30H2,1-6H3;2*1H/q+2;;/p-2",LLFFTSWYUVDYDS-UHFFFAOYSA-L,672.38040368
CCCCCCCCCCCC[N+](C)(C)CC(O)CN(CC)CC(O)C[N+](C)(C)CCCCCCCCCCCC.[Cl-].[Cl-],gemini cationic,0.0007447,3.12801864615663,38,,,33.97,,,25,10.1063/5.0051623,10.1016/j.ces.2022.118208,10.1002/9781119075691.ch43,10.1021/la702619a,,calculated,,,,dodecyl-[3-[[3-[dodecyl(dimethyl)azaniumyl]-2-hydroxypropyl]-ethylamino]-2-hydroxypropyl]-dimethylazanium-dichloride,"InChI=1S/C36H79N3O2.2ClH/c1-8-11-13-15-17-19-21-23-25-27-29-38(4,5)33-35(40)31-37(10-3)32-36(41)34-39(6,7)30-28-26-24-22-20-18-16-14-12-9-2;;/h35-36,40-41H,8-34H2,1-7H3;2*1H/q+2;;/p-2",VBESURDFLJSYSX-UHFFFAOYSA-L,655.554934128
CCCCCCCCCCCC[N+](C)(C)CC(O)CN(CCC)CC(O)C[N+](C)(C)CCCCCCCCCCCC.[Cl-].[Cl-],gemini cationic,0.0006237,3.20502425594887,,,,,,,25,10.1063/5.0051623,,10.1111/cbdd.12236,,,,,,,dodecyl-[3-[[3-[dodecyl(dimethyl)azaniumyl]-2-hydroxypropyl]-propylamino]-2-hydroxypropyl]-dimethylazanium-dichloride,"InChI=1S/C37H81N3O2.2ClH/c1-8-11-13-15-17-19-21-23-25-27-30-39(4,5)34-36(41)32-38(29-10-3)33-37(42)35-40(6,7)31-28-26-24-22-20-18-16-14-12-9-2;;/h36-37,41-42H,8-35H2,1-7H3;2*1H/q+2;;/p-2",ZTYFLXQPELDNJS-UHFFFAOYSA-L,669.570584192
CCCCCCCCCCCC[N+](C)(C)CC(O)CN(CCCC)CC(O)C[N+](C)(C)CCCCCCCCCCCC.[Cl-].[Cl-],gemini cationic,0.000561,3.25103713874384,,,,,,,25,10.1063/5.0051623,,10.1002/9781119075691.ch43,,,,,,,[3-[butyl-[3-[dodecyl(dimethyl)azaniumyl]-2-hydroxypropyl]amino]-2-hydroxypropyl]-dodecyl-dimethylazanium-dichloride,"InChI=1S/C38H83N3O2.2ClH/c1-8-11-14-16-18-20-22-24-26-28-31-40(4,5)35-37(42)33-39(30-13-10-3)34-38(43)36-41(6,7)32-29-27-25-23-21-19-17-15-12-9-2;;/h37-38,42-43H,8-36H2,1-7H3;2*1H/q+2;;/p-2",SAKYLJCABIKWIM-UHFFFAOYSA-L,683.586234256
CCCCCCCCCCCC[N+](C)(C)CC(O)CN(CCCCC)CC(O)C[N+](C)(C)CCCCCCCCCCCC.[Cl-].[Cl-],gemini cationic,0.0003926,3.40604970473601,,,,,,,25,10.1063/5.0051623,,10.1002/9781119075691.ch43,,,,,,,dodecyl-[3-[[3-[dodecyl(dimethyl)azaniumyl]-2-hydroxypropyl]-pentylamino]-2-hydroxypropyl]-dimethylazanium-dichloride,"InChI=1S/C39H85N3O2.2ClH/c1-8-11-14-16-18-20-22-24-26-29-32-41(4,5)36-38(43)34-40(31-28-13-10-3)35-39(44)37-42(6,7)33-30-27-25-23-21-19-17-15-12-9-2;;/h38-39,43-44H,8-37H2,1-7H3;2*1H/q+2;;/p-2",JPSLNTOPPWDEBI-UHFFFAOYSA-L,697.60188432
CCCCCCCCCCCC[N+](C)(C)CC(O)CN(CCCCCC)CC(O)C[N+](C)(C)CCCCCCCCCCCC.[Cl-].[Cl-],gemini cationic,0.0003148,3.50196527631297,35,,,36.97,,,25,10.1063/5.0051623,10.1016/j.ces.2022.118208,10.1002/9781119075691.ch43,10.1021/la702619a,,calculated,,,,"dodecyl-[3-[[3-[dodecyl(dimethyl)azaniumyl]-2-hydroxypropyl]-hexylamino]-2-hydroxypropyl]-dimethylazanium,dichloride","InChI=1S/C40H87N3O2.2ClH/c1-8-11-14-17-19-21-23-25-27-30-33-42(4,5)37-39(44)35-41(32-29-16-13-10-3)36-40(45)38-43(6,7)34-31-28-26-24-22-20-18-15-12-9-2;;/h39-40,44-45H,8-38H2,1-7H3;2*1H/q+2;;/p-2",UXVXVDRPKURNCL-UHFFFAOYSA-L,711.617534384
CCCCCCCCCCCC[N+](C)(C)CC(O)CN(CCCCCCCC)CC(O)C[N+](C)(C)CCCCCCCCCCCC.[Cl-].[Cl-],gemini cationic,0.0002518,3.59894427422816,,,,,,,25,10.1063/5.0051623,,10.1002/9781119075691.ch43,,,,,,,"dodecyl-[3-[[3-[dodecyl(dimethyl)azaniumyl]-2-hydroxypropyl]-octylamino]-2-hydroxypropyl]-dimethylazanium,dichloride","InChI=1S/C42H91N3O2.2ClH/c1-8-11-14-17-20-22-24-26-29-32-35-44(4,5)39-41(46)37-43(34-31-28-19-16-13-10-3)38-42(47)40-45(6,7)36-33-30-27-25-23-21-18-15-12-9-2;;/h41-42,46-47H,8-40H2,1-7H3;2*1H/q+2;;/p-2",CXZJIXDGSPUVAQ-UHFFFAOYSA-L,739.648834512
CCCCCCCCCCCC[N+](C)(C)CC(O)CN1CCN(CC(O)C[N+](C)(C)CCCCCCCCCCCC)CC1.[Cl-].[Cl-],gemini cationic,0.001003,2.99869906697958,37.6,0.000001742,0.95,34.37,3.934,0.0195652548029103,25,10.1080/01932691.2014.986737,10.1016/j.ces.2022.118208,,10.1080/01932691.2014.986737,10.1080/01932691.2014.986737,calculated,10.1080/01932691.2014.986737,10.1080/01932691.2014.986737,calculated,N-bis(dodecyltrimethylammonium)piperazine,"InChI=1S/C38H82N4O2.2ClH/c1-7-9-11-13-15-17-19-21-23-25-31-41(3,4)35-37(43)33-39-27-29-40(30-28-39)34-38(44)36-42(5,6)32-26-24-22-20-18-16-14-12-10-8-2;;/h37-38,43-44H,7-36H2,1-6H3;2*1H/q+2;;/p-2",WUHISLWWSIVKND-UHFFFAOYSA-L,696.581483224
CCCCCCCCCCCC[N+](C)(C)CC(O)COC(=O)CCCCC(=O)OCC(O)C[N+](C)(C)CCCCCCCCCCCC.[Cl-].[Cl-],gemini cationic,,,31.4,,,,,,,,10.1016/j.ces.2022.118208,,10.4028/www.scientific.net/AMR.1004-1005.699,,,,,,,"InChI=1S/C40H82N2O6.2ClH/c1-7-9-11-13-15-17-19-21-23-27-31-41(3,4)33-37(43)35-47-39(45)29-25-26-30-40(46)48-36-38(44)34-42(5,6)32-28-24-22-20-18-16-14-12-10-8-2;;/h37-38,43-44H,7-36H2,1-6H3;2*1H/q+2;;/p-2",SWZJVYFOCZFFOI-UHFFFAOYSA-L,756.554993704
CCCCCCCCCCCC[N+](C)(C)CC(O)COCCOCC(O)C[N+](C)(C)CCCCCCCCCCCC.[Br-].[Br-],gemini cationic,0.000711,3.14813039927023,30.6,0.000003,0.55,41.4,3.64,0.000229,25,10.1016/j.colsurfa.2011.12.014,10.1016/j.ces.2022.118208,,10.1016/j.colsurfa.2011.12.014,10.1016/j.colsurfa.2011.12.014,,10.1016/j.colsurfa.2011.12.014,10.1016/j.colsurfa.2011.12.014,,"α,ω-Bis(dodecyldimethylammoniomethyl)trioxyethyleneglycoldibromide","InChI=1S/C36H78N2O4.2BrH/c1-7-9-11-13-15-17-19-21-23-25-27-37(3,4)31-35(39)33-41-29-30-42-34-36(40)32-38(5,6)28-26-24-22-20-18-16-14-12-10-8-2;;/h35-36,39-40H,7-34H2,1-6H3;2*1H/q+2;;/p-2",FYZYGGQELVJZJV-UHFFFAOYSA-L,760.432833176
CCCCCCCCCCCC[N+](C)(C)CC(O)COCCOCCOCC(O)C[N+](C)(C)CCCCCCCCCCCC.[Br-].[Br-],gemini cationic,0.001239,2.90692869362394,28.5,0.00000106,1.57,43.5,4.12,0.0000752,25,10.1016/j.colsurfa.2011.12.014,10.1016/j.ces.2022.118208,,10.1016/j.colsurfa.2011.12.014,10.1016/j.colsurfa.2011.12.014,,10.1016/j.colsurfa.2011.12.014,10.1016/j.colsurfa.2011.12.014,,"α,ω-Bis(dodecyldimethylammoniomethyl)tetraoxyethyleneglycoldibromide","InChI=1S/C38H82N2O5.2BrH/c1-7-9-11-13-15-17-19-21-23-25-27-39(3,4)33-37(41)35-44-31-29-43-30-32-45-36-38(42)34-40(5,6)28-26-24-22-20-18-16-14-12-10-8-2;;/h37-38,41-42H,7-36H2,1-6H3;2*1H/q+2;;/p-2",ZNHBZUXWHBECBG-UHFFFAOYSA-L,804.459047924
CCCCCCCCCCCC[N+](C)(C)CC(O)COCCOCCOCCOCC(O)C[N+](C)(C)CCCCCCCCCCCC.[Br-].[Br-],gemini cationic,0.000607,3.21681130892474,33.8,0.000000827,1.19,38.2,4,0.0001,25,10.1016/j.colsurfa.2011.12.014,10.1016/j.ces.2022.118208,,10.1016/j.colsurfa.2011.12.014,10.1016/j.colsurfa.2011.12.014,,10.1016/j.colsurfa.2011.12.014,10.1016/j.colsurfa.2011.12.014,,"α,ω-Bis(dodecyldimethylammoniomethyl)pentaoxyethyleneglycoldibromide","InChI=1S/C40H86N2O6.2BrH/c1-7-9-11-13-15-17-19-21-23-25-27-41(3,4)35-39(43)37-47-33-31-45-29-30-46-32-34-48-38-40(44)36-42(5,6)28-26-24-22-20-18-16-14-12-10-8-2;;/h39-40,43-44H,7-38H2,1-6H3;2*1H/q+2;;/p-2",WRFNXQLKCHVWST-UHFFFAOYSA-L,848.485262672
CCCCCCCCCCCC[N+](C)(C)CC(O)COc1ccc(OCC(O)C[N+](C)(C)CCCCCCCCCCCC)cc1.[Cl-].[Cl-],gemini cationic,0.0006,3.22184874961636,40.2,0.00000114,1.46,31.8,3.83,0.000148,25,10.1080/01932690903192580,10.1016/j.ces.2022.118208,,10.1080/01932690903192580,10.1080/01932690903192580,10.1080/01932690903192580,10.1080/01932690903192580,10.1080/01932690903192580,10.1080/01932690903192580,,"InChI=1S/C40H78N2O4.2ClH/c1-7-9-11-13-15-17-19-21-23-25-31-41(3,4)33-37(43)35-45-39-27-29-40(30-28-39)46-36-38(44)34-42(5,6)32-26-24-22-20-18-16-14-12-10-8-2;;/h27-30,37-38,43-44H,7-26,31-36H2,1-6H3;2*1H/q+2;;/p-2",BHPGQJUPCGOIPT-UHFFFAOYSA-L,720.533864336
CCCCCCCCCCCC[N+](C)(C)CC(O)C[N+](C)(C)CCCCCCCCCCCC.[Cl-].[Cl-],gemini cationic,0.00078,3.10790539730952,37,,,35,3.2,0.000631,25,10.1007/BF02517994,10.1016/j.ces.2022.118208,,10.1007/BF02517994,,,,10.1007/BF02517994,,bis-dodecyldimethylammoniumsalt,"InChI=1S/C31H68N2O.2ClH/c1-7-9-11-13-15-17-19-21-23-25-27-32(3,4)29-31(34)30-33(5,6)28-26-24-22-20-18-16-14-12-10-8-2;;/h31,34H,7-30H2,1-6H3;2*1H/q+2;;/p-2",QBJONSOVMCQLOK-UHFFFAOYSA-L,554.470870156
CCCCCCCCCCCC[N+](C)(C)CC(O)C[N+](CC)(CC)CC(O)C[N+](C)(C)CCCCCCCCCCCC.[Cl-].[Cl-].[Cl-],gemini cationic,,,34,,,,,,,,10.1016/j.ces.2022.118208,,10.1021/la702619a,,,,,,,"InChI=1S/C38H84N3O2.3ClH/c1-9-13-15-17-19-21-23-25-27-29-31-39(5,6)33-37(42)35-41(11-3,12-4)36-38(43)34-40(7,8)32-30-28-26-24-22-20-18-16-14-10-2;;;/h37-38,42-43H,9-36H2,1-8H3;3*1H/q+3;;;/p-3",GYGQIDPDZNMVHZ-UHFFFAOYSA-K,719.562911968
CCCCCCCCCCCC[N+](C)(C)CC(O)C[N+](CCCCCC)(CCCCCC)CC(O)C[N+](C)(C)CCCCCCCCCCCC.[Cl-].[Cl-].[Cl-],gemini cationic,,,30,,,,,,,,10.1016/j.ces.2022.118208,,10.1021/la702619a,,,,,,,"InChI=1S/C46H100N3O2.3ClH/c1-9-13-17-21-23-25-27-29-31-33-37-47(5,6)41-45(50)43-49(39-35-19-15-11-3,40-36-20-16-12-4)44-46(51)42-48(7,8)38-34-32-30-28-26-24-22-18-14-10-2;;;/h45-46,50-51H,9-44H2,1-8H3;3*1H/q+3;;;/p-3",MRQMKAJEDUDDQO-UHFFFAOYSA-K,831.68811248
CCCCCCCCCCCC[N+](C)(C)CC.[Br-],cationic,0.014,1.85387196432176,,,,,,,25,10.1021/acs.jpcb.1c05264,,10.1002/9781118228920,,,,,,,dodecyl-ethyl-dimethylazanium-bromide,"InChI=1S/C16H36N.BrH/c1-5-7-8-9-10-11-12-13-14-15-16-17(3,4)6-2;/h5-16H2,1-4H3;1H/q+1;/p-1",FFGSPQDSOUPWGY-UHFFFAOYSA-M,321.203112252
CCCCCCCCCCCC[N+](C)(C)CCC(O)C[N+](C)(C)CCCCCCCCCCCC.[Br-].[Br-],gemini cationic,0.0009397,3.02701077314465,,,,,,,25,10.1063/5.0051623,,,,,,,,,,"InChI=1S/C32H70N2O.2BrH/c1-7-9-11-13-15-17-19-21-23-25-28-33(3,4)30-27-32(35)31-34(5,6)29-26-24-22-20-18-16-14-12-10-8-2;;/h32,35H,7-31H2,1-6H3;2*1H/q+2;;/p-2",VTZREECQBUVWAW-UHFFFAOYSA-L,656.38548906
CCCCCCCCCCCC[N+](C)(C)CCC(O)C[N+](C)(C)CCCCCCCCCCCC.[Cl-].[Cl-],gemini cationic,,,40.9,,,,,,,,10.1016/j.ces.2022.118208,,10.1007/BF02517994,,,,,,,"InChI=1S/C32H70N2O.2ClH/c1-7-9-11-13-15-17-19-21-23-25-28-33(3,4)30-27-32(35)31-34(5,6)29-26-24-22-20-18-16-14-12-10-8-2;;/h32,35H,7-31H2,1-6H3;2*1H/q+2;;/p-2",ABUBSZCQTIOHNW-UHFFFAOYSA-L,568.48652022
CCCCCCCCCCCC[N+](C)(C)CCC/N=C/c1ccc(OC)c(OC)c1.[Br-],cationic,,,31.1,,,,,,,,10.1016/j.ces.2022.118208,,10.1016/j.molliq.2015.03.043,,,,,,,"InChI=1S/C26H47N2O2.BrH/c1-6-7-8-9-10-11-12-13-14-15-20-28(2,3)21-16-19-27-23-24-17-18-25(29-4)26(22-24)30-5;/h17-18,22-23H,6-16,19-21H2,1-5H3;1H/q+1;/p-1/b27-23+;",OHUKOTBMRDBULT-VZXOMLSWSA-M,498.282090844
CCCCCCCCCCCC[N+](C)(C)CCCC(=O)[O-],zwitterionic,0.0046,2.33724216831843,,,,,,,25,10.1021/acs.jpcb.1c05264,,10.1002/9781118228920,,,,,,,4-[dodecyl(dimethyl)azaniumyl]butanoate,"InChI=1S/C18H37NO2/c1-4-5-6-7-8-9-10-11-12-13-16-19(2,3)17-14-15-18(20)21/h4-17H2,1-3H3",ZFVNBVQBIZJUEY-UHFFFAOYSA-N,299.282429424
CCCCCCCCCCCC[N+](C)(C)CCCC.[Br-],cationic,0.0075,2.1249387366083,,,,,,,25,"['10.1002/9781118228920', '10.1002/9781118228920.ch3', '10.1021/acs.jpcb.1c05264']",,10.1002/9781118228920,,,,,,,butyl-dodecyl-dimethylazanium-bromide,"InChI=1S/C18H40N.BrH/c1-5-7-9-10-11-12-13-14-15-16-18-19(3,4)17-8-6-2;/h5-18H2,1-4H3;1H/q+1;/p-1",CQIBGZQCUFHFOK-UHFFFAOYSA-M,349.23441238
CCCCCCCCCCCC[N+](C)(C)CCCCCC(=O)[O-],zwitterionic,0.0026,2.58502665202918,,,,,,,25,10.1021/acs.jpcb.1c05264,,10.1002/9781118228920,,,,,,,6-[dodecyl(dimethyl)azaniumyl]hexanoate,"InChI=1S/C20H41NO2/c1-4-5-6-7-8-9-10-11-12-15-18-21(2,3)19-16-13-14-17-20(22)23/h4-19H2,1-3H3",BUFVMHYCMFITOB-UHFFFAOYSA-N,327.313729552
CCCCCCCCCCCC[N+](C)(C)CCCCCC.[Br-],cationic,0.0031,2.50863830616573,,,,,,,25,"['10.1002/9781118228920', '10.1002/9781118228920.ch3', '10.1021/acs.jpcb.1c05264']",,10.1002/9781118228920,,,,,,,dodecyl-hexyl-dimethylazanium-bromide,"InChI=1S/C20H44N.BrH/c1-5-7-9-11-12-13-14-15-16-18-20-21(3,4)19-17-10-8-6-2;/h5-20H2,1-4H3;1H/q+1;/p-1",RCSPZVZNFMGVRJ-UHFFFAOYSA-M,377.265712508
CCCCCCCCCCCC[N+](C)(C)CCCCCCCC.[Br-],cationic,0.0011,2.95860731484178,,,,,,,25,10.1021/acs.jpcb.1c05264,,10.1002/9781118228920,,,,,,,dodecyl-dimethyl-octylazanium-bromide,"InChI=1S/C22H48N.BrH/c1-5-7-9-11-13-14-15-16-18-20-22-23(3,4)21-19-17-12-10-8-6-2;/h5-22H2,1-4H3;1H/q+1;/p-1",GKWGLVAZUZYRCO-UHFFFAOYSA-M,405.297012636