SMILES,Surfactant_Type,CMC,pCMC,AW_ST_CMC,Gamma_max,Area_min,Pi_CMC,pC20,C20,Temp_Celsius,Ref_CMC,Ref_AW_ST_CMC,SubRef_CMC,SubRef_AW_ST_CMC,Ref_Gamma_max,Ref_Pi_CMC,Ref_Area_min,Ref_pC20,Ref_C20,IUPAC_name,InChI,InChIKey,Molecular_Weight
CCCCCCCCCCCCCC[N+]1(CC#CC[N+]2(CCCCCCCCCCCCCC)CCCC2)CCCC1.[Br-].[Br-],gemini cationic,0.00013,3.88605664769316,,,,,,,25,10.1063/5.0051623,,,,,,,,,,"InChI=1S/C40H78N2.2BrH/c1-3-5-7-9-11-13-15-17-19-21-23-25-33-41(35-27-28-36-41)39-31-32-40-42(37-29-30-38-42)34-26-24-22-20-18-16-14-12-10-8-6-4-2;;/h3-30,33-40H2,1-2H3;2*1H/q+2;;/p-2",DKKXFJYBEAUMRQ-UHFFFAOYSA-L,744.453174696
CCCCCCCCCCCCCC[N+]1(CC#CC[N+]2(CCCCCCCCCCCCCC)CCCCC2)CCCCC1.[Br-].[Br-],gemini cationic,0.000207,3.68402965454308,,,,,,,25,10.1063/5.0051623,,,,,,,,,,"InChI=1S/C42H82N2.2BrH/c1-3-5-7-9-11-13-15-17-19-21-23-27-35-43(37-29-25-30-38-43)41-33-34-42-44(39-31-26-32-40-44)36-28-24-22-20-18-16-14-12-10-8-6-4-2;;/h3-32,35-42H2,1-2H3;2*1H/q+2;;/p-2",SFPGWWUPJLLLCM-UHFFFAOYSA-L,772.484474824
CCCCCCCCCCCCCC[N+]1(CCCC[N+]2(CCCCCCCCCCCCCC)CCCC2)CCCC1.[Br-].[Br-],gemini cationic,0.00013,3.88605664769316,38,,,33.97,,,25,10.1063/5.0051623,10.1016/j.ces.2022.118208,,10.1016/j.jcis.2011.12.025,,calculated,,,,,"InChI=1S/C40H82N2.2BrH/c1-3-5-7-9-11-13-15-17-19-21-23-25-33-41(35-27-28-36-41)39-31-32-40-42(37-29-30-38-42)34-26-24-22-20-18-16-14-12-10-8-6-4-2;;/h3-40H2,1-2H3;2*1H/q+2;;/p-2",WZDKJHSQPCGAFK-UHFFFAOYSA-L,748.484474824
CCCCCCCCCCCCCC[N+]1(Cc2ccc(C[N+]3(CCCCCCCCCCCCCC)CCOCC3)cc2)CCOCC1.[Cl-].[Cl-],gemini cationic,0.000171,3.76700388960785,42.5,0.00000129,1.29,29.5,4.18,0.0000661,25,10.1016/j.molliq.2021.115781,10.1016/j.ces.2022.118208,,10.1016/j.molliq.2021.115781,10.1016/j.molliq.2021.115781,10.1016/j.molliq.2021.115781,10.1016/j.molliq.2021.115781,10.1016/j.molliq.2021.115781,10.1016/j.molliq.2021.115781,morpholinium-bistetradecyl-phenylene,"InChI=1S/C44H82N2O2.2ClH/c1-3-5-7-9-11-13-15-17-19-21-23-25-31-45(33-37-47-38-34-45)41-43-27-29-44(30-28-43)42-46(35-39-48-40-36-46)32-26-24-22-20-18-16-14-12-10-8-6-4-2;;/h27-30H,3-26,31-42H2,1-2H3;2*1H/q+2;;/p-2",GJIKVAREYXSHFS-UHFFFAOYSA-L,740.575335224
CCCCCCCCCCCCCC[N+]CC(O)COCC(C)(COCC(O)C[N+]CCCCCCCCCCCCCC)COCC(O)C[N+]CCCCCCCCCCCCCC.[Cl-].[Cl-].[Cl-],gemini cationic,0.000223,3.65169513695184,34,0.00000288,0.58,38,4.7,0.00002,25,10.1007/s11743-007-1052-4,10.1016/j.ces.2022.118208,,10.1007/s11743-007-1052-4,10.1007/s11743-007-1052-4,10.1007/s11743-007-1052-4,,10.1007/s11743-007-1052-4,,"1,1,1-Tris[2-hydroxy-3-(dodecyldimethylammonio)-propoxymethyl]ethaneTrichloride","InChI=1S/C56H114N3O6.3ClH/c1-5-8-11-14-17-20-23-26-29-32-35-38-41-57-44-53(60)47-63-50-56(4,51-64-48-54(61)45-58-42-39-36-33-30-27-24-21-18-15-12-9-6-2)52-65-49-55(62)46-59-43-40-37-34-31-28-25-22-19-16-13-10-7-3;;;/h53-55,60-62H,5-52H2,1-4H3;3*1H/q+3;;;/p-3",UZAFNQHLMUFFMI-UHFFFAOYSA-K,1029.777321408
CCCCCCCCCCCCCC[N+]CCO.[Br-],cationic,0.000729,3.13727247168203,32,0.00000163,1.02,40,4.23,0.0000596,25,10.1016/j.molliq.2018.10.100,10.1016/j.ces.2022.118208,,10.1016/j.molliq.2018.10.100,10.1016/j.molliq.2018.10.100,10.1016/j.molliq.2018.10.100,10.1016/j.molliq.2018.10.100,10.1016/j.molliq.2018.10.100,,Monoethanolamine-tetradecyl,"InChI=1S/C16H34NO.BrH/c1-2-3-4-5-6-7-8-9-10-11-12-13-14-17-15-16-18;/h18H,2-16H2,1H3;1H/q+1;/p-1",BJDUIYBVCAQQNA-UHFFFAOYSA-M,335.182376808
CCCCCCCCCCCCCC[P+](c1ccccc1)(c1ccccc1)c1ccccc1,cationic,0.0006,3.22184874961636,41.3,0.00000203,0.82,30.7,3.7,0.0002,25,10.1016/j.tca.2004.11.009,,,,,,10.1016/j.tca.2004.11.009,,10.1016/j.tca.2004.11.009,triphenyl(tetradecyl)phosphanium,"InChI=1S/C32H44P/c1-2-3-4-5-6-7-8-9-10-11-12-22-29-33(30-23-16-13-17-24-30,31-25-18-14-19-26-31)32-27-20-15-21-28-32/h13-21,23-28H,2-12,22,29H2,1H3/q+1",HXWNEEZPMZTSBJ-UHFFFAOYSA-N,459.31751445809
CCCCCCCCCCCCCC[n+]1ccc(C(=O)NCCCCCCNC(=O)c2cc[n+](CCCCCCCCCCCCCC)cc2)cc1.[Br-].[Br-],gemini cationic,0.00000835,5.0783135245164,43,0.00000229,0.87,29,5.28,0.00000525,25,10.1016/j.cclet.2011.01.030,10.1016/j.ces.2022.118208,,10.1016/j.cclet.2011.01.030,10.1016/j.cclet.2011.01.030,,10.1016/j.cclet.2011.01.030,10.1016/j.cclet.2011.01.030,,"N,N-hexamethylenebis(1-tetradecyl-4-carbamoylpyridiniumbromide","InChI=1S/C46H78N4O2.2BrH/c1-3-5-7-9-11-13-15-17-19-21-25-29-37-49-39-31-43(32-40-49)45(51)47-35-27-23-24-28-36-48-46(52)44-33-41-50(42-34-44)38-30-26-22-20-18-16-14-12-10-8-6-4-2;;/h31-34,39-42H,3-30,35-38H2,1-2H3;2*1H",VPEAKSFYWKCOLE-UHFFFAOYSA-N,878.464802
CCCCCCCCCCCCCC[n+]1cccc(NC(=O)Nc2ccc[n+](CCCCCCCCCCCCCC)c2)c1.[Br-].[Br-],gemini cationic,0.0000155,4.80966830182971,36.2,,,35.77,,,25,10.1007/s11743-016-1850-7,10.1007/s11743-016-1850-7,,,,calculated,,10.1007/s11743-016-1850-7,,,"InChI=1S/C39H67N4O.2BrH/c1-3-5-7-9-11-13-15-17-19-21-23-25-31-42-33-27-29-37(35-42)40-39(44)41-38-30-28-34-43(36-38)32-26-24-22-20-18-16-14-12-10-8-6-4-2;;/h27-30,33-36H,3-26,31-32H2,1-2H3,(H-,40,41,44);2*1H/q+1;;/p-1",KVZKXVRSZZSPKU-UHFFFAOYSA-M,766.375986996
CCCCCCCCCCCCCC[n+]1ccccc1.[Br-],cationic,0.0028,2.55284196865778,40.8,,,31.17,,,25,10.1021/acs.jpcb.1c05264,10.1016/j.ces.2022.118208,10.1002/9781118228920,10.1002/0471670561,,calculated,,,,1-tetradecylpyridin-1-ium-bromide,"InChI=1S/C19H34N.BrH/c1-2-3-4-5-6-7-8-9-10-11-12-14-17-20-18-15-13-16-19-20;/h13,15-16,18-19H,2-12,14,17H2,1H3;1H/q+1;/p-1",HJNAJKBRYDFICV-UHFFFAOYSA-M,355.187462188
CCCCCCCCCCCCCC[n+]1ccccc1.[Cl-],cationic,0.0035,2.45593195564972,,,,,,,25,10.1021/acs.jpcb.1c05264,,10.1002/9781118228920,,,,,,,1-tetradecylpyridin-1-ium-chloride,"InChI=1S/C19H34N.ClH/c1-2-3-4-5-6-7-8-9-10-11-12-14-17-20-18-15-13-16-19-20;/h13,15-16,18-19H,2-12,14,17H2,1H3;1H/q+1;/p-1",YFVBASFBIJFBAI-UHFFFAOYSA-M,311.237977768
CCCCCCCCCCCCCC[n+]1ccn(CCOC(=O)NCCCC)c1.[Br-],cationic,,,44,,,,,,,,10.1016/j.ces.2022.118208,,10.1016/j.molliq.2020.114094,,,,,,,"InChI=1S/C24H45N3O2.BrH/c1-3-5-7-8-9-10-11-12-13-14-15-16-18-26-19-20-27(23-26)21-22-29-24(28)25-17-6-4-2;/h19-20,23H,3-18,21-22H2,1-2H3;1H",SAXWXVITRSJCQU-UHFFFAOYSA-N,487.277339812
CCCCCCCCCCCCCCc1cc[nH+]cc1.[Br-],cationic,0.0027,2.56863623584101,,,,,,,25,10.1002/9781118228920.ch3,,,,,,,,,4-tetradecylpyridin-1-ium-bromide,"InChI=1S/C19H33N.BrH/c1-2-3-4-5-6-7-8-9-10-11-12-13-14-19-15-17-20-18-16-19;/h15-18H,2-14H2,1H3;1H",MDSXAVBHMVKEST-UHFFFAOYSA-N,355.187462188
CCCCCCCCCCCCCCc1cc[nH+]cc1.[Cl-],cationic,0.0035,2.45593195564972,,,,,,,25,10.1002/9781118228920.ch3,,,,,,,,,,"InChI=1S/C19H33N.ClH/c1-2-3-4-5-6-7-8-9-10-11-12-13-14-19-15-17-20-18-16-19;/h15-18H,2-14H2,1H3;1H",PNYVHHBFJYAIBH-UHFFFAOYSA-N,311.237977768
CCCCCCCCCCCCCCc1ccc(C[C@H](Nc2ccc(S(=O)(=O)[O-])cc2)C(=O)O)cc1.[Na+],anionic,0.000016,4.79588001734408,,,,,,,25,10.1021/ci600462d,,,,,,,,,,"InChI=1S/C29H43NO5S.Na/c1-2-3-4-5-6-7-8-9-10-11-12-13-14-24-15-17-25(18-16-24)23-28(29(31)32)30-26-19-21-27(22-20-26)36(33,34)35;/h15-22,28,30H,2-14,23H2,1H3,(H,31,32)(H,33,34,35);/q;+1/p-1/t28-;/m0./s1",QXGZYPWUYXORMB-JCOPYZAKSA-M,539.268138724
CCCCCCCCCCCCCCn1cc[n+](C)c1.[Br-],cationic,,,39.2,,,,,,,,10.1016/j.ces.2022.118208,,10.1021/je400861g,,,,,,,"InChI=1S/C18H35N2.BrH/c1-3-4-5-6-7-8-9-10-11-12-13-14-15-20-17-16-19(2)18-20;/h16-18H,3-15H2,1-2H3;1H/q+1;/p-1",ZKPSZHWFVLHSJM-UHFFFAOYSA-M,358.19836122
CCCCCCCCCCCCCCn1cc[n+](C)c1.[Cl-],cationic,,,37.5,,,,,,,,10.1016/j.ces.2022.118208,,10.1021/je400861g,,,,,,,"InChI=1S/C18H35N2.ClH/c1-3-4-5-6-7-8-9-10-11-12-13-14-15-20-17-16-19(2)18-20;/h16-18H,3-15H2,1-2H3;1H/q+1;/p-1",SDXDXENAFAXVMX-UHFFFAOYSA-M,314.2488768
CCCCCCCCCCCCCCn1cc[n+](CC(O)C[n+]2ccn(CCCCCCCCCCCCCC)c2)c1.[Cl-].[Cl-],gemini cationic,0.001062,2.97387548325455,,,,,,,25,10.1063/5.0051623,,10.1002/9781119075691.ch43,,,,,,,,"InChI=1S/C37H70N4O.2ClH/c1-3-5-7-9-11-13-15-17-19-21-23-25-27-38-29-31-40(35-38)33-37(42)34-41-32-30-39(36-41)28-26-24-22-20-18-16-14-12-10-8-6-4-2;;/h29-32,35-37,42H,3-28,33-34H2,1-2H3;2*1H/q+2;;/p-2",ZJXZUINWNBEOEA-UHFFFAOYSA-L,656.49266822
CCCCCCCCCCCCCCn1cc[n+](CCCC[n+]2ccn(CCCCCCCCCCCCCC)c2)c1.[Br-].[Br-],gemini cationic,0.0001199,3.92118081690115,,,,,,,25,10.1063/5.0051623,,,,,,,,,"1-tetradecyl-3-[4-(3-tetradecylimidazol-3-ium-1-yl)butyl]imidazol-1-ium,dibromide","InChI=1S/C38H72N4.2BrH/c1-3-5-7-9-11-13-15-17-19-21-23-25-29-39-33-35-41(37-39)31-27-28-32-42-36-34-40(38-42)30-26-24-22-20-18-16-14-12-10-8-6-4-2;;/h33-38H,3-32H2,1-2H3;2*1H/q+2;;/p-2",QYDWEEFGNUYLCJ-UHFFFAOYSA-L,742.412372504
CCCCCCCCCCCCCCn1cc[n+](COCCCCCCOC[n+]2ccn(CCCCCCCCCCCCCC)c2)c1.[Cl-].[Cl-],gemini cationic,0.0003388441561392,3.47,28.3,0.0000019,0.95,43.7,4.19830040863478,0.0150210848438262,25,10.1111/cbdd.12236,10.1111/cbdd.12236,10.1111/cbdd.12236,,10.1111/cbdd.12236,10.1111/cbdd.12236,10.1111/cbdd.12236,calculated,calculated,,"InChI=1S/C42H80N4O2.2ClH/c1-3-5-7-9-11-13-15-17-19-21-23-27-31-43-33-35-45(39-43)41-47-37-29-25-26-30-38-48-42-46-36-34-44(40-46)32-28-24-22-20-18-16-14-12-10-8-6-4-2;;/h33-36,39-40H,3-32,37-38,41-42H2,1-2H3;2*1H/q+2;;/p-2",ZVIKDCHSERQGRZ-UHFFFAOYSA-L,742.56583316
CCCCCCCCCCCCCCn1cc[n+](COCCCCCOC[n+]2ccn(CCCCCCCCCCCCCC)c2)c1.[Cl-].[Cl-],gemini cationic,0.0003715352290971,3.43000000000009,33.9,0.00000216,0.84,38.1,3.91926103791519,0.0198557619797055,25,10.1111/cbdd.12236,10.1111/cbdd.12236,10.1111/cbdd.12236,,10.1111/cbdd.12236,10.1111/cbdd.12236,10.1111/cbdd.12236,calculated,calculated,,"InChI=1S/C41H78N4O2.2ClH/c1-3-5-7-9-11-13-15-17-19-21-23-26-30-42-32-34-44(38-42)40-46-36-28-25-29-37-47-41-45-35-33-43(39-45)31-27-24-22-20-18-16-14-12-10-8-6-4-2;;/h32-35,38-39H,3-31,36-37,40-41H2,1-2H3;2*1H/q+2;;/p-2",SINKLYQYHCBGHE-UHFFFAOYSA-L,728.550183096
CCCCCCCCCCCCCCn1cc[n+](COCCCCOC[n+]2ccn(CCCCCCCCCCCCCC)c2)c1.[Cl-].[Cl-],gemini cationic,0.0003981071705534,3.40000000000011,35.2,0.00000219,0.82,36.77,3.84789991028703,0.0213244727526609,25,10.1111/cbdd.12236,10.1111/cbdd.12236,10.1002/9781119075691.ch43,,10.1111/cbdd.12236,calculated,10.1111/cbdd.12236,calculated,calculated,,"InChI=1S/C40H76N4O2.2ClH/c1-3-5-7-9-11-13-15-17-19-21-23-25-29-41-31-33-43(37-41)39-45-35-27-28-36-46-40-44-34-32-42(38-44)30-26-24-22-20-18-16-14-12-10-8-6-4-2;;/h31-34,37-38H,3-30,35-36,39-40H2,1-2H3;2*1H/q+2;;/p-2",RNRWOBGJSXVPAU-UHFFFAOYSA-L,714.534533032
CCCCCCCCCCCCCCn1cc[n+](COCCCOC[n+]2ccn(CCCCCCCCCCCCCC)c2)c1.[Cl-].[Cl-],gemini cationic,0.0004265795188015,3.37000000000009,36.4,0.00000222,0.8,35.6,3.78028669388261,0.0228161492369242,25,10.1111/cbdd.12236,10.1111/cbdd.12236,10.1111/cbdd.12236,,10.1111/cbdd.12236,10.1111/cbdd.12236,10.1111/cbdd.12236,calculated,calculated,,"InChI=1S/C39H74N4O2.2ClH/c1-3-5-7-9-11-13-15-17-19-21-23-25-28-40-30-32-42(36-40)38-44-34-27-35-45-39-43-33-31-41(37-43)29-26-24-22-20-18-16-14-12-10-8-6-4-2;;/h30-33,36-37H,3-29,34-35,38-39H2,1-2H3;2*1H/q+2;;/p-2",YMXUTOBXPYGLTN-UHFFFAOYSA-L,700.518882968
CCCCCCCCCCCCCCn1cc[n+](COCCOC[n+]2ccn(CCCCCCCCCCCCCC)c2)c1.[Cl-].[Cl-],gemini cationic,0.0004570881896148,3.34000000000007,37.5,0.00000225,0.78,34.5,3.71627147225301,0.0243244935261057,25,10.1111/cbdd.12236,10.1111/cbdd.12236,10.1111/cbdd.12236,,10.1111/cbdd.12236,10.1111/cbdd.12236,10.1111/cbdd.12236,calculated,calculated,,"InChI=1S/C38H72N4O2.2ClH/c1-3-5-7-9-11-13-15-17-19-21-23-25-27-39-29-31-41(35-39)37-43-33-34-44-38-42-32-30-40(36-42)28-26-24-22-20-18-16-14-12-10-8-6-4-2;;/h29-32,35-36H,3-28,33-34,37-38H2,1-2H3;2*1H/q+2;;/p-2",JRKIOENEYADAQC-UHFFFAOYSA-L,686.503232904
CCCCCCCCCCCCCNCC(=O)OCCOCCOCCOCCO,non-ionic,0.0002931,3.53298418156156,,,,,,,25,10.1021/ie4016232,,,,,,,,,,"InChI=1S/C23H47NO6/c1-2-3-4-5-6-7-8-9-10-11-12-13-24-22-23(26)30-21-20-29-19-18-28-17-16-27-15-14-25/h24-25H,2-22H2,1H3",GLKXDMNCLWTTJT-UHFFFAOYSA-N,433.340338224
CCCCCCCCCCCCCOCCOCCOCCOCCOCCO,non-ionic,0.000049,4.30980391997149,,,,,,,25,10.1021/acs.jpcb.1c05264,,10.1002/9781118228920,,,,,,,2-[2-[2-[2-(2-tridecoxyethoxy)ethoxy]ethoxy]ethoxy]ethanol,"InChI=1S/C23H48O6/c1-2-3-4-5-6-7-8-9-10-11-12-14-25-16-18-27-20-22-29-23-21-28-19-17-26-15-13-24/h24H,2-23H2,1H3",FJJPDQOHCDOSQU-UHFFFAOYSA-N,420.345089256
CCCCCCCCCCCCCOCCOCCOCCOCCOCCOCCOCCOCCO,non-ionic,0.000027,4.56863623584101,35.1,0.00000287,0.58,36.9,5.60007125199514,0.00369760024570189,25,10.1021/acs.jpcb.1c05264,10.1016/j.ces.2022.118208,10.1002/9781118228920,10.1002/0471670561,10.1007/BF01419322,,10.1007/BF01419322,calculated,calculated,2-[2-[2-[2-[2-[2-[2-(2-tridecoxyethoxy)ethoxy]ethoxy]ethoxy]ethoxy]ethoxy]ethoxy]ethanol,"InChI=1S/C29H60O9/c1-2-3-4-5-6-7-8-9-10-11-12-14-31-16-18-33-20-22-35-24-26-37-28-29-38-27-25-36-23-21-34-19-17-32-15-13-30/h30H,2-29H2,1H3",DFVNYTSHNSXEMH-UHFFFAOYSA-N,552.4237335
CCCCCCCCCCCCCON(C)CCOCCOCCOCCO,non-ionic,0.0005105,3.29200425357707,,,,,,,25,10.1021/ie4016232,,,,,,,,,,"InChI=1S/C22H47NO5/c1-3-4-5-6-7-8-9-10-11-12-13-16-28-23(2)14-17-25-19-21-27-22-20-26-18-15-24/h24H,3-22H2,1-2H3",MAKXAYLQWRHMDE-UHFFFAOYSA-N,405.345423604
CCCCCCCCCCCCCON(C)CCOCCOCCOCCOCCOCCOCCO,non-ionic,0.0006501,3.18701983396052,,,,,,,25,10.1021/ie4016232,,,,,,,,,,"InChI=1S/C28H59NO8/c1-3-4-5-6-7-8-9-10-11-12-13-16-37-29(2)14-17-31-19-21-33-23-25-35-27-28-36-26-24-34-22-20-32-18-15-30/h30H,3-28H2,1-2H3",PLIVHJGQSVXGBD-UHFFFAOYSA-N,537.424067848
CCCCCCCCCCCCCON(C)CCOCCOCCOCCOCCOCCOCCOCCOCCOCCO,non-ionic,0.0007499,3.12499664639996,,,,,,,25,10.1021/ie4016232,,,,,,,,,,"InChI=1S/C34H71NO11/c1-3-4-5-6-7-8-9-10-11-12-13-16-46-35(2)14-17-37-19-21-39-23-25-41-27-29-43-31-33-45-34-32-44-30-28-42-26-24-40-22-20-38-18-15-36/h36H,3-34H2,1-2H3",RIRBJHPYSOPSES-UHFFFAOYSA-N,669.502712092
CCCCCCCCCCCCCONCCOCCOCCOCCO,non-ionic,0.0005,3.30102999566398,,,,,,,25,10.1021/ie4016232,,,,,,,,,,"InChI=1S/C21H45NO5/c1-2-3-4-5-6-7-8-9-10-11-12-15-27-22-13-16-24-18-20-26-21-19-25-17-14-23/h22-23H,2-21H2,1H3",VZUBNPJSHIITMH-UHFFFAOYSA-N,391.32977354
CCCCCCCCCCCCCOOCCOCCOCCOCCOCCOCCOCCOCC,non-ionic,0.00002698,4.56895805466411,,,,,,,25,10.1021/ie4016232,,,,,,,,,,"InChI=1S/C29H60O9/c1-3-5-6-7-8-9-10-11-12-13-14-15-37-38-29-28-36-27-26-35-25-24-34-23-22-33-21-20-32-19-18-31-17-16-30-4-2/h3-29H2,1-2H3",OWGJFHBUMLPRFK-UHFFFAOYSA-N,552.4237335
CCCCCCCCCCCCCOS(=O)(=O)[O-].[Na+],anionic,0.004295,2.36703683183274,,,,,,,25,10.1021/ci600462d,,10.1006/jcis.1996.4680,,,,,,,sodium-tridecyl-sulfate,"InChI=1S/C13H28O4S.Na/c1-2-3-4-5-6-7-8-9-10-11-12-13-17-18(14,15)16;/h2-13H2,1H3,(H,14,15,16);/q;+1/p-1",HQCFDOOSGDZRII-UHFFFAOYSA-M,302.152774624
CCCCCCCCCCCCCS(=O)(=O)[O-].[Na+],anionic,0.003793,2.42101715729721,,,,,,,25,10.1021/ci600462d,,,,,,,,,sodium-tridecane-1-sulfonate,"InChI=1S/C13H28O3S.Na/c1-2-3-4-5-6-7-8-9-10-11-12-13-17(14,15)16;/h2-13H2,1H3,(H,14,15,16);/q;+1/p-1",CACJZDMMUHMEBN-UHFFFAOYSA-M,286.157860004
CCCCCCCCCCCCC[C@H](NCCOCCOCCOCCO)C(=O)O,non-ionic,0.0003864,3.41296288225654,,,,,,,25,10.1021/ie4016232,,,,,,,,,,"InChI=1S/C23H47NO6/c1-2-3-4-5-6-7-8-9-10-11-12-13-22(23(26)27)24-14-16-28-18-20-30-21-19-29-17-15-25/h22,24-25H,2-21H2,1H3,(H,26,27)/t22-/m0/s1",RFOVSGVTAMNMCR-QFIPXVFZSA-N,433.340338224
CCCCCCCCCCCCC[C@H](Nc1ccc(S(=O)(=O)[O-])cc1)C(=O)O.[Na+],anionic,0.0004102,3.38700434396765,,,,,,,25,10.1021/ci600462d,,,,,,,,,,"InChI=1S/C21H35NO5S.Na/c1-2-3-4-5-6-7-8-9-10-11-12-13-20(21(23)24)22-18-14-16-19(17-15-18)28(25,26)27;/h14-17,20,22H,2-13H2,1H3,(H,23,24)(H,25,26,27);/q;+1/p-1/t20-;/m0./s1",XJBVWTNDLOLJAW-BDQAORGHSA-M,435.205538468
CCCCCCCCCCCCC[N+](C)(C)CCCCCC[N+](C)(C)CCCCCCCCCCC.[Br-].[Br-],gemini cationic,0.0008800351116873,3.05550000000001,,,,,,,25,10.1016/j.chemosphere.2011.05.031,,,,,,,,,,"InChI=1S/C34H74N2.2BrH/c1-7-9-11-13-15-17-18-20-22-24-28-32-36(5,6)34-30-26-25-29-33-35(3,4)31-27-23-21-19-16-14-12-10-8-2;;/h7-34H2,1-6H3;2*1H/q+2;;/p-2",LYBGTZJKDDQFAN-UHFFFAOYSA-L,668.421874568
CCCCCCCCCCCCC[N+](C)(C)CCCCC[N+](C)(C)CCCCCCCCCCCCC.[Br-].[Br-],gemini cationic,0.0004100152405066,3.38720000000001,39.7,0.00000135,1.23,32.3,3.91917001249555,0.0198575694410332,25,"['10.1016/j.chemosphere.2011.05.031', '10.1016/0021-9797(86)90417-0', '10.1016/0021-9797(86)90417-0']",10.1016/j.ces.2022.118208,,10.1016/0021-9797(86)90417-0,10.1016/0021-9797(86)90417-0,,,calculated,calculated,"N,N'-bis(tridecyldimethyl)-3-methyl-1,5-pentanediammoniumdibromide","InChI=1S/C35H76N2.2BrH/c1-7-9-11-13-15-17-19-21-23-25-28-32-36(3,4)34-30-27-31-35-37(5,6)33-29-26-24-22-20-18-16-14-12-10-8-2;;/h7-35H2,1-6H3;2*1H/q+2;;/p-2",KPLOAHOAUYCFBI-UHFFFAOYSA-L,682.437524632
CCCCCCCCCCCCC[N+](C)(C)CCCCNC[N+](C)(C)CCCCCCCCCCCCC.[Br-].[Br-],gemini cationic,0.0003299894079108,3.48150000000005,,,,,,,25,10.1016/j.chemosphere.2011.05.031,,,,,,,,,,"InChI=1S/C35H77N3.2BrH/c1-7-9-11-13-15-17-19-21-23-25-28-32-37(3,4)33-30-27-31-36-35-38(5,6)34-29-26-24-22-20-18-16-14-12-10-8-2;;/h36H,7-35H2,1-6H3;2*1H/q+2;;/p-2",GJCVSWDZRQPYBY-UHFFFAOYSA-L,697.448423664
CCCCCCCCCCCCC[N+](C)(C)CCCCO[N+](C)(C)CCCCCCCCCCCCC.[Br-].[Br-],gemini cationic,0.0003800143529415,3.4202000000001,,,,,,,25,10.1016/j.chemosphere.2011.05.031,,,,,,,,,,"InChI=1S/C34H74N2O.2BrH/c1-7-9-11-13-15-17-19-21-23-25-27-31-35(3,4)32-29-30-34-37-36(5,6)33-28-26-24-22-20-18-16-14-12-10-8-2;;/h7-34H2,1-6H3;2*1H/q+2;;/p-2",REFUCJQLTBWFBE-UHFFFAOYSA-L,684.416789188
CCCCCCCCCCCCC[N+](C)(C)CCN(C)CC[N+](C)(C)CCCCCCCCCCCCC.[Br-].[Br-],gemini cationic,0.00041,3.38721614328026,38,0.00000149,1.11,34,3.93581838239008,0.0195297100149216,25,10.1016/0021-9797(86)90417-0,10.1016/j.ces.2022.118208,,10.1016/0021-9797(86)90417-0,10.1016/0021-9797(86)90417-0,,,calculated,calculated,"N,N'-bis(tridecyldimethyl)-3-N-methyl-1,5-pentanediammoniumdibromide","InChI=1S/C35H77N3.2BrH/c1-8-10-12-14-16-18-20-22-24-26-28-32-37(4,5)34-30-36(3)31-35-38(6,7)33-29-27-25-23-21-19-17-15-13-11-9-2;;/h8-35H2,1-7H3;2*1H/q+2;;/p-2",FERGIBHPUWXPKH-UHFFFAOYSA-L,697.448423664
CCCCCCCCCCCCC[N+](C)(C)CCOCC[N+](C)(C)CCCCCCCCCCCCC.[Br-].[Br-],gemini cationic,0.00031,3.50863830616573,39.7,0.00000132,1.26,32.3,4.05269854621798,0.017375422935466,25,10.1016/0021-9797(86)90417-0,10.1016/j.ces.2022.118208,,10.1016/0021-9797(86)90417-0,10.1016/0021-9797(86)90417-0,,,calculated,calculated,"N,N'-bis(tridecyldimethyl)-3-O-1,5-pentanediammoniumdibromide","InChI=1S/C34H74N2O.2BrH/c1-7-9-11-13-15-17-19-21-23-25-27-29-35(3,4)31-33-37-34-32-36(5,6)30-28-26-24-22-20-18-16-14-12-10-8-2;;/h7-34H2,1-6H3;2*1H/q+2;;/p-2",CNLUPBHYUWEYAS-UHFFFAOYSA-L,684.416789188
CCCCCCCCCCCCC[N+]1(CCC#CCC[N+]2(CCCCCCCCCCCCC)CCCC2)CCCC1.[Br-].[Br-],gemini cationic,0.0009099132726322,3.04100000000003,,,,,,,25,10.1016/j.chemosphere.2011.05.031,,,,,,,,,,"InChI=1S/C40H78N2.2BrH/c1-3-5-7-9-11-13-15-17-19-21-25-33-41(37-29-30-38-41)35-27-23-24-28-36-42(39-31-32-40-42)34-26-22-20-18-16-14-12-10-8-6-4-2;;/h3-22,25-40H2,1-2H3;2*1H/q+2;;/p-2",ONPVCWKJXCCFNH-UHFFFAOYSA-L,744.453174696
CCCCCCCCCCCCC[N+]1(CCC#CCC[N+]2(CCCCCCCCCCCCC)CCCCC2)CCCCC1.[Br-].[Br-],gemini cationic,0.0008900204796255,3.05060000000001,,,,,,,25,10.1016/j.chemosphere.2011.05.031,,,,,,,,,,"InChI=1S/C42H82N2.2BrH/c1-3-5-7-9-11-13-15-17-19-21-27-35-43(39-31-25-32-40-43)37-29-23-24-30-38-44(41-33-26-34-42-44)36-28-22-20-18-16-14-12-10-8-6-4-2;;/h3-22,25-42H2,1-2H3;2*1H/q+2;;/p-2",ANMIBWNIXJLHNX-UHFFFAOYSA-L,772.484474824
CCCCCCCCCCCCC[n+]1ccccc1.[Br-],cationic,0.0053,2.27572413039921,,,,,,,25,10.1021/acs.jpcb.1c05264,,10.1002/9781118228920,,,,,,,1-tridecylpyridin-1-ium-bromide,"InChI=1S/C18H32N.BrH/c1-2-3-4-5-6-7-8-9-10-11-13-16-19-17-14-12-15-18-19;/h12,14-15,17-18H,2-11,13,16H2,1H3;1H/q+1;/p-1",DGNBZUZCZMKTSU-UHFFFAOYSA-M,341.171812124
CCCCCCCCCCCCCc1cc[nH+]cc1.[Br-],cationic,0.0053,2.27572413039921,,,,,,,25,10.1002/9781118228920.ch3,,,,,,,,,4-tridecylpyridin-1-ium-bromide,"InChI=1S/C18H31N.BrH/c1-2-3-4-5-6-7-8-9-10-11-12-13-18-14-16-19-17-15-18;/h14-17H,2-13H2,1H3;1H",IVJBGDLKLFFHMJ-UHFFFAOYSA-N,341.171812124
CCCCCCCCCCCCN(C)C(=O)C(O)C(O)C(O)C(O)CO,non-ionic,,,34.2,,,,,,,,10.1016/j.ces.2022.118208,,10.1002/0471670561,,,,,,,"InChI=1S/C19H39NO6/c1-3-4-5-6-7-8-9-10-11-12-13-20(2)19(26)18(25)17(24)16(23)15(22)14-21/h15-18,21-25H,3-14H2,1-2H3",WRBSFINFCKCUDF-UHFFFAOYSA-N,377.277737968