SMILES,Surfactant_Type,CMC,pCMC,AW_ST_CMC,Gamma_max,Area_min,Pi_CMC,pC20,C20,Temp_Celsius,Ref_CMC,Ref_AW_ST_CMC,SubRef_CMC,SubRef_AW_ST_CMC,Ref_Gamma_max,Ref_Pi_CMC,Ref_Area_min,Ref_pC20,Ref_C20,IUPAC_name,InChI,InChIKey,Molecular_Weight
CCCCCCCCCCCC(C)[N+](C)(C)CCCC[N+](C)(C)C(C)CCCCCCCCCCC.[Br-].[Br-],gemini cationic,,,39.4,,,,,,,,10.1016/j.ces.2022.118208,,10.3390/molecules24234380,,,,,,,"InChI=1S/C34H74N2.2BrH/c1-9-11-13-15-17-19-21-23-25-29-33(3)35(5,6)31-27-28-32-36(7,8)34(4)30-26-24-22-20-18-16-14-12-10-2;;/h33-34H,9-32H2,1-8H3;2*1H/q+2;;/p-2",YUGMIHHKEMZWGB-UHFFFAOYSA-L,668.421874568
CCCCCCCCCCCC(C)[N+](C)(C)CCC[N+](C)(C)C(C)CCCCCCCCCCC.[Br-].[Br-],gemini cationic,,,36,,,,,,,,10.1016/j.ces.2022.118208,,10.3390/molecules24234380,,,,,,,"InChI=1S/C33H72N2.2BrH/c1-9-11-13-15-17-19-21-23-25-28-32(3)34(5,6)30-27-31-35(7,8)33(4)29-26-24-22-20-18-16-14-12-10-2;;/h32-33H,9-31H2,1-8H3;2*1H/q+2;;/p-2",NXBMEKLHUPPIRO-UHFFFAOYSA-L,654.406224504
CCCCCCCCCCCC(C)c1ccc(S(=O)(=O)[O-])cc1.[Na+],anionic,0.0006194,3.20802879897923,,,,,,,25,10.1021/ci600462d,,10.1006/jcis.1996.4680,,,,,,,sodium-4-tridecan-2-ylbenzenesulfonate,"InChI=1S/C19H32O3S.Na/c1-3-4-5-6-7-8-9-10-11-12-17(2)18-13-15-19(16-14-18)23(20,21)22;/h13-17H,3-12H2,1-2H3,(H,20,21,22);/q;+1/p-1",XGXHFRAKNBHVRI-UHFFFAOYSA-M,362.189160132
CCCCCCCCCCCC(CC)OS(=O)(=O)[O-].[Na+],anionic,0.004295,2.36703683183274,,,,,,,25,10.1021/ci600462d,,10.1006/jcis.1996.4680,,,,,,,sodium-tetradecan-3-yl-sulfate,"InChI=1S/C14H30O4S.Na/c1-3-5-6-7-8-9-10-11-12-13-14(4-2)18-19(15,16)17;/h14H,3-13H2,1-2H3,(H,15,16,17);/q;+1/p-1",AFCMRXYTEJPSGX-UHFFFAOYSA-M,316.168424688
CCCCCCCCCCCC(CC)c1ccc(S(=O)(=O)[O-])cc1.[Na+],anionic,0.001,3,,,,,,,25,10.1021/ci600462d,,10.1016/j.theochem.2004.08.039,,,,,,,sodium-4-tetradecan-3-ylbenzenesulfonate,"InChI=1S/C20H34O3S.Na/c1-3-5-6-7-8-9-10-11-12-13-18(4-2)19-14-16-20(17-15-19)24(21,22)23;/h14-18H,3-13H2,1-2H3,(H,21,22,23);/q;+1/p-1",OEVUVKJGDDERDZ-UHFFFAOYSA-M,376.204810196
CCCCCCCCCCCC(CCC)COS(=O)(=O)[O-].[Na+],anionic,0.002,2.69897000433602,,,,,,,25,10.1021/ci600462d,,10.1006/jcis.1996.4680,,,,,,,,"InChI=1S/C16H34O4S.Na/c1-3-5-6-7-8-9-10-11-12-14-16(13-4-2)15-20-21(17,18)19;/h16H,3-15H2,1-2H3,(H,17,18,19);/q;+1/p-1",WZVKHOZSOVXLKD-UHFFFAOYSA-M,344.199724816
CCCCCCCCCCCC(CCC)c1ccc(S(=O)(=O)[O-])cc1.[Na+],anionic,0.0007079,3.15002808767115,,,,,,,25,10.1021/ci600462d,,10.1016/j.theochem.2004.08.039,,,,,,,sodium-4-pentadecan-4-ylbenzenesulfonate,"InChI=1S/C21H36O3S.Na/c1-3-5-6-7-8-9-10-11-12-14-19(13-4-2)20-15-17-21(18-16-20)25(22,23)24;/h15-19H,3-14H2,1-2H3,(H,22,23,24);/q;+1/p-1",VFNHACRMCDBSTR-UHFFFAOYSA-M,390.22046026
CCCCCCCCCCCC(CCS(=O)(=O)[O-])COCCO.[Na+],anionic,0.006324,2.19900813873983,,,,,,,25,10.1021/ci600462d,,10.1006/jcis.1996.4680,,,,,,,,"InChI=1S/C17H36O5S.Na/c1-2-3-4-5-6-7-8-9-10-11-17(16-22-14-13-18)12-15-23(19,20)21;/h17-18H,2-16H2,1H3,(H,19,20,21);/q;+1/p-1",OMZPSEPPWFBTJR-UHFFFAOYSA-M,374.2102895
CCCCCCCCCCCC(CCS(=O)(=O)[O-])COCCOCCO.[Na+],anionic,0.0003589,3.44502654166676,30.5,0.00000131,1.27,41.5,4.88241526003233,0.00757868740392157,25,10.1021/ci600462d,,10.1006/jcis.1996.4680,,,,,calculated,calculated,,"InChI=1S/C19H40O6S.Na/c1-2-3-4-5-6-7-8-9-10-11-19(12-17-26(21,22)23)18-25-16-15-24-14-13-20;/h19-20H,2-18H2,1H3,(H,21,22,23);/q;+1/p-1",AMZDSEJFVGRSOD-UHFFFAOYSA-M,418.236504248
CCCCCCCCCCCC(CCS(=O)(=O)[O-])N(C)C.[Na+],anionic,0.00001633,4.78701381526333,30.4,0.00000195,0.85,41.6,5.75713548908258,0.00316015093247473,25,10.1021/ci600462d,10.1016/j.tetasy.2004.01.022,10.1016/j.tetasy.2004.01.022,,,,10.1016/j.tetasy.2004.01.022,calculated,calculated,,"InChI=1S/C16H35NO3S.Na/c1-4-5-6-7-8-9-10-11-12-13-16(17(2)3)14-15-21(18,19)20;/h16H,4-15H2,1-3H3,(H,18,19,20);/q;+1/p-1",KTKYBVWGJBUMMI-UHFFFAOYSA-M,343.215709228
CCCCCCCCCCCC(CCS(=O)(=O)[O-])N1CCCCC1.[Na+],anionic,0.0004898,3.3099812192113,,,,,,,25,10.1021/ci600462d,,,,,,,,,,"InChI=1S/C19H39NO3S.Na/c1-2-3-4-5-6-7-8-9-11-14-19(15-18-24(21,22)23)20-16-12-10-13-17-20;/h19H,2-18H2,1H3,(H,21,22,23);/q;+1/p-1",YQVINRXBFBYBPB-UHFFFAOYSA-M,383.247009356
CCCCCCCCCCCC(CCS(=O)(=O)[O-])N1CCOCC1.[Na+],anionic,0.0007834,3.10601643278815,,,,,,,25,10.1021/ci600462d,,10.1016/j.tetasy.2004.01.022,,,,,,,,"InChI=1S/C18H37NO4S.Na/c1-2-3-4-5-6-7-8-9-10-11-18(12-17-24(20,21)22)19-13-15-23-16-14-19;/h18H,2-17H2,1H3,(H,20,21,22);/q;+1/p-1",VMQDJAIVGLABKD-UHFFFAOYSA-M,385.226273912
CCCCCCCCCCCC(CCS(=O)(=O)[O-])NCCC.[Na+],anionic,0.001086,2.96417017474717,30.7,0.00000237,0.7,41.3,3.75128542170143,0.0234875350560857,25,10.1021/ci600462d,10.1016/j.tetasy.2004.01.022,10.1016/j.tetasy.2004.01.022,,,,10.1016/j.tetasy.2004.01.022,calculated,calculated,,"InChI=1S/C17H37NO3S.Na/c1-3-5-6-7-8-9-10-11-12-13-17(18-15-4-2)14-16-22(19,20)21;/h17-18H,3-16H2,1-2H3,(H,19,20,21);/q;+1/p-1",IFSRVKLFJLBDGX-UHFFFAOYSA-M,357.231359292
CCCCCCCCCCCC(CCS(=O)(=O)[O-])NCCCC.[Na+],anionic,0.000631,3.19997064075587,33,0.00000216,0.77,39,3.97035404299788,0.0188667523110234,25,10.1021/ci600462d,10.1016/j.tetasy.2004.01.022,10.1016/j.tetasy.2004.01.022,,,,10.1016/j.tetasy.2004.01.022,calculated,calculated,,"InChI=1S/C18H39NO3S.Na/c1-3-5-7-8-9-10-11-12-13-14-18(19-16-6-4-2)15-17-23(20,21)22;/h18-19H,3-17H2,1-2H3,(H,20,21,22);/q;+1/p-1",KUPCFHFFYJMEFU-UHFFFAOYSA-M,371.247009356
CCCCCCCCCCCC(CCS(=O)(=O)[O-])Oc1cc(Cl)c(Cl)cc1Cl.[Na+],anionic,0.0002286,3.64092377394074,29.1,0.00000213,0.78,42.9,4.5825161784008,0.0102291255832929,25,10.1021/ci600462d,10.1016/j.tetasy.2004.01.022,10.1016/j.tetasy.2004.01.022,,,,10.1016/j.tetasy.2004.01.022,calculated,calculated,,"InChI=1S/C20H31Cl3O4S.Na/c1-2-3-4-5-6-7-8-9-10-11-16(12-13-28(24,25)26)27-20-15-18(22)17(21)14-19(20)23;/h14-16H,2-13H2,1H3,(H,24,25,26);/q;+1/p-1",CRKZFFDBFDAOFK-UHFFFAOYSA-M,494.08280776
CCCCCCCCCCCC(CCS(=O)(=O)[O-])Oc1ccccc1.[Na+],anionic,0.001197,2.92190584959359,29,0.00000175,0.95,43,4.07296291495849,0.0170268645436899,25,10.1021/ci600462d,10.1016/j.tetasy.2004.01.022,10.1016/j.tetasy.2004.01.022,,,,10.1016/j.tetasy.2004.01.022,calculated,calculated,,"InChI=1S/C20H34O4S.Na/c1-2-3-4-5-6-7-8-9-11-16-20(17-18-25(21,22)23)24-19-14-12-10-13-15-19;/h10,12-15,20H,2-9,11,16-18H2,1H3,(H,21,22,23);/q;+1/p-1",UWKRDEKFTPXYFB-UHFFFAOYSA-M,392.199724816
CCCCCCCCCCCC(O)CCS(=O)(=O)[O-].[Na+],anionic,0.02877,1.54106013810967,,,,,,,25,10.1021/ci600462d,,10.1006/jcis.1996.4680,,,,,,,sodium-3-hydroxytetradecane-1-sulfonate,"InChI=1S/C14H30O4S.Na/c1-2-3-4-5-6-7-8-9-10-11-14(15)12-13-19(16,17)18;/h14-15H,2-13H2,1H3,(H,16,17,18);/q;+1/p-1",CYSFCDDXAUBSIS-UHFFFAOYSA-M,316.168424688
CCCCCCCCCCCC(O)NC(O)(OS(=O)(=O)[O-])[C@H]1OC(O)[C@H](O)[C@@H](O)[C@@H]1O.[Na+],anionic,0.001698,2.77006231409207,,,,,,,25,10.1021/ci600462d,,10.1016/s0008-6215(01)00077-5,,,,,,,,"InChI=1S/C18H37NO11S.Na/c1-2-3-4-5-6-7-8-9-10-11-12(20)19-18(25,30-31(26,27)28)16-14(22)13(21)15(23)17(24)29-16;/h12-17,19-25H,2-11H2,1H3,(H,26,27,28);/q;+1/p-1/t12?,13-,14-,15+,16-,17?,18?;/m0./s1",QQXVDJVUDIOQKD-DGKWNLITSA-M,497.190676252
CCCCCCCCCCCC(O)NCCOCCO,non-ionic,0.0003999,3.39804859586648,,,,,,,25,10.1021/ie4016232,,,,,,,,,,"InChI=1S/C16H35NO3/c1-2-3-4-5-6-7-8-9-10-11-16(19)17-12-14-20-15-13-18/h16-19H,2-15H2,1H3",JXMCPPCWOVIQQI-UHFFFAOYSA-N,289.26169398
CCCCCCCCCCCC(O)NCCOCCOCCO,non-ionic,0.0005105,3.29200425357707,,,,,,,25,10.1021/ie4016232,,,,,,,,,,"InChI=1S/C18H39NO4/c1-2-3-4-5-6-7-8-9-10-11-18(21)19-12-14-22-16-17-23-15-13-20/h18-21H,2-17H2,1H3",HDBRMNDJYZZWPX-UHFFFAOYSA-N,333.287908728
CCCCCCCCCCCC(O)NCCOCCOCCOCCO,non-ionic,0.0002449,3.61101121487529,,,,,,,25,10.1021/ie4016232,,,,,,,,,,"InChI=1S/C20H43NO5/c1-2-3-4-5-6-7-8-9-10-11-20(23)21-12-14-24-16-18-26-19-17-25-15-13-22/h20-23H,2-19H2,1H3",VFKDQKMEQBEDRY-UHFFFAOYSA-N,377.314123476
CCCCCCCCCCCC(O)OCCOCC,non-ionic,0.000033,4.48148606012211,,,,,,,25,10.1002/9781118228920.ch3,,,,,,,,,,"InChI=1S/C16H34O3/c1-3-5-6-7-8-9-10-11-12-13-16(17)19-15-14-18-4-2/h16-17H,3-15H2,1-2H3",MXODEFAEBQGHHK-UHFFFAOYSA-N,274.250794948
CCCCCCCCCCCC(O)OCCOCCOCC,non-ionic,0.000052,4.2839966563652,27.9,0.00000398,0.42,44.1,5.34,0.00000456,25,10.1002/9781118228920.ch3,10.1002/9781118228920.ch5,,,10.1002/9781118228920.ch5,10.1002/9781118228920.ch5,,,,,"InChI=1S/C18H38O4/c1-3-5-6-7-8-9-10-11-12-13-18(19)22-17-16-21-15-14-20-4-2/h18-19H,3-17H2,1-2H3",FDWMXICXSJQRFD-UHFFFAOYSA-N,318.277009696
CCCCCCCCCCCC(O)OCCOCCOCCOCC,non-ionic,0.000064,4.19382002601611,28.6,0.00000363,0.46,43.4,5.33,0.00000467,25,10.1002/9781118228920.ch3,10.1002/9781118228920.ch5,,,10.1002/9781118228920.ch5,10.1002/9781118228920.ch5,,,,,"InChI=1S/C20H42O5/c1-3-5-6-7-8-9-10-11-12-13-20(21)25-19-18-24-17-16-23-15-14-22-4-2/h20-21H,3-19H2,1-2H3",KAGYMLVCWHNJNJ-UHFFFAOYSA-N,362.303224444
CCCCCCCCCCCC(O)OCCOCCOCCOCCOCC,non-ionic,0.000064,4.19382002601611,30.5,0.00000333,0.5,41.5,5.37,0.00000427,25,10.1002/9781118228920.ch3,10.1002/9781118228920.ch5,,,10.1002/9781118228920.ch5,10.1002/9781118228920.ch5,,,,,"InChI=1S/C22H46O6/c1-3-5-6-7-8-9-10-11-12-13-22(23)28-21-20-27-19-18-26-17-16-25-15-14-24-4-2/h22-23H,3-21H2,1-2H3",ZDBRUZZHUOPDDW-UHFFFAOYSA-N,406.329439192
CCCCCCCCCCCC(O)OCCOCCOCCOCCOCCOCC,non-ionic,0.000087,4.06048074738138,31,0.0000037,0.45,41,5.04,0.00000906,25,10.1002/9781118228920.ch3,10.1002/9781118228920.ch5,,,10.1002/9781118228920.ch5,10.1002/9781118228920.ch5,,,,,"InChI=1S/C24H50O7/c1-3-5-6-7-8-9-10-11-12-13-24(25)31-23-22-30-21-20-29-19-18-28-17-16-27-15-14-26-4-2/h24-25H,3-23H2,1-2H3",YJODXOGOFNGXMH-UHFFFAOYSA-N,450.35565394
CCCCCCCCCCCC(O)OCCOCCOCCOCCOCCOCCOCC,non-ionic,0.000082,4.08618614761628,33.7,0.0000029,0.57,38.3,5.26,0.0000055,25,10.1002/9781118228920.ch3,10.1002/9781118228920.ch5,,,10.1002/9781118228920.ch5,10.1002/9781118228920.ch5,,,,,"InChI=1S/C26H54O8/c1-3-5-6-7-8-9-10-11-12-13-26(27)34-25-24-33-23-22-32-21-20-31-19-18-30-17-16-29-15-14-28-4-2/h26-27H,3-25H2,1-2H3",KMCUYRUYWWHWGJ-UHFFFAOYSA-N,494.381868688
CCCCCCCCCCCC(O)OCCOCCOCCOCCOCCOCCOCCOCC,non-ionic,0.000109,3.96257350205938,34.8,0.00000252,0.66,37.2,5.2,0.0000063,25,10.1002/9781118228920.ch3,10.1002/9781118228920.ch5,,,10.1002/9781118228920.ch5,10.1002/9781118228920.ch5,,,,,"InChI=1S/C28H58O9/c1-3-5-6-7-8-9-10-11-12-13-28(29)37-27-26-36-25-24-35-23-22-34-21-20-33-19-18-32-17-16-31-15-14-30-4-2/h28-29H,3-27H2,1-2H3",YPRFEGCKXFBWPX-UHFFFAOYSA-N,538.408083436
CCCCCCCCCCCC(O)OCCOCCOCCOCCOCCOCCOCCOCCOCC,non-ionic,0.0001,4,,,,,,,25,10.1002/9781118228920.ch3,,,,,,,,,,"InChI=1S/C30H62O10/c1-3-5-6-7-8-9-10-11-12-13-30(31)40-29-28-39-27-26-38-25-24-37-23-22-36-21-20-35-19-18-34-17-16-33-15-14-32-4-2/h30-31H,3-29H2,1-2H3",AUZAZJLQHXJCKB-UHFFFAOYSA-N,582.434298184
CCCCCCCCCCCC(O)OCCOCCOCCOCCOCCOCCOCCOCCOCCOCCOCCOCC,non-ionic,0.00014,3.85387196432176,,,,,,,25,10.1002/9781118228920.ch3,,,,,,,,,,"InChI=1S/C36H74O13/c1-3-5-6-7-8-9-10-11-12-13-36(37)49-35-34-48-33-32-47-31-30-46-29-28-45-27-26-44-25-24-43-23-22-42-21-20-41-19-18-40-17-16-39-15-14-38-4-2/h36-37H,3-35H2,1-2H3",XGUFGEMKNHJRDT-UHFFFAOYSA-N,714.512942428
CCCCCCCCCCCC(O)OCCOCCOCCOCCOCCOCCOCCOCCOCCOCCOCCOCCOCCOCC,non-ionic,0.0000021,5.67778070526608,,,,,,,25,10.1002/9781118228920.ch3,,,,,,,,,,"InChI=1S/C40H82O15/c1-3-5-6-7-8-9-10-11-12-13-40(41)55-39-38-54-37-36-53-35-34-52-33-32-51-31-30-50-29-28-49-27-26-48-25-24-47-23-22-46-21-20-45-19-18-44-17-16-43-15-14-42-4-2/h40-41H,3-39H2,1-2H3",LEXKLEZJIDHPGD-UHFFFAOYSA-N,802.565371924
CCCCCCCCCCCC(O)OCCOCCOCCOCCOCCOCCOCCOCCOCCOCCOCCOCCOCCOCCOCCOCCOCC,non-ionic,0.0000023,5.63827216398241,,,,,,,25,10.1002/9781118228920.ch3,,,,,,,,,,"InChI=1S/C46H94O18/c1-3-5-6-7-8-9-10-11-12-13-46(47)64-45-44-63-43-42-62-41-40-61-39-38-60-37-36-59-35-34-58-33-32-57-31-30-56-29-28-55-27-26-54-25-24-53-23-22-52-21-20-51-19-18-50-17-16-49-15-14-48-4-2/h46-47H,3-45H2,1-2H3",HONILLJHNKOSMT-UHFFFAOYSA-N,934.644016168
CCCCCCCCCCCC(OCC)(OCC)OS(=O)(=O)[O-].[Na+],anionic,0.002799,2.55299710153384,,,,,,,25,10.1021/ci600462d,,10.1006/jcis.1996.4680,,,,,,,"sodium-1,1-diethoxydodecyl-sulfate","InChI=1S/C16H34O6S.Na/c1-4-7-8-9-10-11-12-13-14-15-16(20-5-2,21-6-3)22-23(17,18)19;/h4-15H2,1-3H3,(H,17,18,19);/q;+1/p-1",UEXPVEJRBPHUKD-UHFFFAOYSA-M,376.189554056
CCCCCCCCCCCC(OCC)OS(=O)(=O)[O-].[Na+],anionic,0.004018,2.39599006758777,,,,,,,25,10.1021/ci600462d,,10.1006/jcis.1996.4680,,,,,,,sodium-1-ethoxydodecyl-sulfate,"InChI=1S/C14H30O5S.Na/c1-3-5-6-7-8-9-10-11-12-13-14(18-4-2)19-20(15,16)17;/h14H,3-13H2,1-2H3,(H,15,16,17);/q;+1/p-1",LMZWJJJMIUZWIX-UHFFFAOYSA-M,332.163339308
CCCCCCCCCCCC(OCCOCC)(OCCOCC)OS(=O)(=O)[O-].[Na+],anionic,0.001698,2.77006231409207,,,,,,,25,10.1021/ci600462d,,10.1021/la950581j,,,,,,,,"InChI=1S/C20H42O8S.Na/c1-4-7-8-9-10-11-12-13-14-15-20(28-29(21,22)23,26-18-16-24-5-2)27-19-17-25-6-3;/h4-19H2,1-3H3,(H,21,22,23);/q;+1/p-1",JKOMFIUKNZERHH-UHFFFAOYSA-M,464.241983552
CCCCCCCCCCCC1=NCC[N+]1(CCCCCC[N+]1(CCNCCN)CCN=C1CCCCCCCCCCC)CCNCCN.[Br-].[Br-],gemini cationic,,,28.3,,,,,,,,10.1016/j.ces.2022.118208,,10.1080/01932691.2019.1584112,,,,,,,"InChI=1S/C42H88N8.2BrH/c1-3-5-7-9-11-13-15-17-21-25-41-47-33-39-49(41,37-31-45-29-27-43)35-23-19-20-24-36-50(38-32-46-30-28-44)40-34-48-42(50)26-22-18-16-14-12-10-8-6-4-2;;/h45-46H,3-40,43-44H2,1-2H3;2*1H/q+2;;/p-2",QDGAAVRVLFNHML-UHFFFAOYSA-L,862.549869016
CCCCCCCCCCCC1=[N+](CCO)CCN1.O=C([O-])O,zwitterionic,,,29,,,,,,,,10.1016/j.ces.2022.118208,,10.1007/s11743-012-1332-5,,,,,,,"InChI=1S/C16H32N2O.CH2O3/c1-2-3-4-5-6-7-8-9-10-11-16-17-12-13-18(16)14-15-19;2-1(3)4/h19H,2-15H2,1H3;(H2,2,3,4)",WADHQOBQKQPGKR-UHFFFAOYSA-N,330.251857568
CCCCCCCCCCCC1OCC(C[N+](C)(C)C)O1.[Br-],cationic,0.00085,3.07058107428571,30.6,0.00000166,1,41.5,4.1996299767979,0.0150011265585327,25,10.1016/0927-7757(95)03093-S,10.1016/j.ces.2022.118208,,10.1016/0927-7757(95)03093-S,10.1016/0927-7757(95)03093-S,10.1016/0927-7757(95)03093-S,10.1016/0927-7757(95)03093-S,calculated,calculated,,"InChI=1S/C18H38NO2.BrH/c1-5-6-7-8-9-10-11-12-13-14-18-20-16-17(21-18)15-19(2,3)4;/h17-18H,5-16H2,1-4H3;1H/q+1;/p-1",ODWOQGOGKYETHV-UHFFFAOYSA-M,379.208591556
CCCCCCCCCCCCC(=O)NCCC[N+](C)(C)CC(O)C[N+](C)(C)CCCNC(=O)CCCCCCCCCCCC.[Cl-].[Cl-],gemini cationic,0.000148,3.82973828460504,34.8,0.00000132,1.23,37.2,4.75,0.0000178,25,10.1016/j.colsurfa.2018.11.061,10.1016/j.ces.2022.118208,,10.1016/j.colsurfa.2018.11.061,10.1016/j.colsurfa.2018.11.061,,10.1016/j.colsurfa.2018.11.061,10.1016/j.colsurfa.2018.11.061,10.1016/j.colsurfa.2018.11.061,"1,3-2(doedecylamidepropyldimethylammoniumchloride)isopropylalcohol","InChI=1S/C39H80N4O3.2ClH/c1-7-9-11-13-15-17-19-21-23-25-29-38(45)40-31-27-33-42(3,4)35-37(44)36-43(5,6)34-28-32-41-39(46)30-26-24-22-20-18-16-14-12-10-8-2;;/h37,44H,7-36H2,1-6H3;2*1H",MHLUIBFEJXHHGU-UHFFFAOYSA-N,724.576397844
CCCCCCCCCCCCC(=O)NCC[N+](C)(C)C.[Cl-],cationic,,,35,,,,,,,,10.1016/j.ces.2022.118208,,10.1007/s11743-000-0121-4,,,,,,,"InChI=1S/C18H38N2O.ClH/c1-5-6-7-8-9-10-11-12-13-14-15-18(21)19-16-17-20(2,3)4;/h5-17H2,1-4H3;1H",ZNLXUJYWSLAAKC-UHFFFAOYSA-N,334.275091548
CCCCCCCCCCCCC(=O)NCC[N+](C)(C)CC(O)C[N+](C)(C)CCNC(=O)CCCCCCCCCCCC.[Cl-].[Cl-],gemini cationic,,,33,,,,,,,,10.1016/j.ces.2022.118208,,10.1007/s11743-000-0121-4,,,,,,,"InChI=1S/C37H76N4O3.2ClH/c1-7-9-11-13-15-17-19-21-23-25-27-36(43)38-29-31-40(3,4)33-35(42)34-41(5,6)32-30-39-37(44)28-26-24-22-20-18-16-14-12-10-8-2;;/h35,42H,7-34H2,1-6H3;2*1H",JDKQJVGUWIUCFS-UHFFFAOYSA-N,696.545097716
CCCCCCCCCCCCC(=O)NCC[N+](C)(C)Cc1ccccc1.[Cl-],cationic,,,39.6,,,,,,,,10.1016/j.ces.2022.118208,,10.1021/la026286y,,,,,,,"InChI=1S/C24H42N2O.ClH/c1-4-5-6-7-8-9-10-11-12-16-19-24(27)25-20-21-26(2,3)22-23-17-14-13-15-18-23;/h13-15,17-18H,4-12,16,19-22H2,1-3H3;1H",DYSTYFCMAZTZBF-UHFFFAOYSA-N,410.306391676
CCCCCCCCCCCCC(=O)N[N+](C)(C)CCC[N+](C)(C)NC(=O)CCCCCCCCCCCC.[Br-].[Br-],gemini cationic,0.001409,2.85108900689064,,,,,,,25,10.1063/5.0051623,,,,,,,,,,"InChI=1S/C33H68N4O2.2BrH/c1-7-9-11-13-15-17-19-21-23-25-28-32(38)34-36(3,4)30-27-31-37(5,6)35-33(39)29-26-24-22-20-18-16-14-12-10-8-2;;/h7-31H2,1-6H3;2*1H",IJQILKMOSZTOIH-UHFFFAOYSA-N,712.38655168
CCCCCCCCCCCCC(=O)OCC[N+](C)(C)C.[Cl-],cationic,,,30,,,,,,,,10.1016/j.ces.2022.118208,,10.1007/s11743-000-0121-4,,,,,,,"InChI=1S/C18H38NO2.ClH/c1-5-6-7-8-9-10-11-12-13-14-15-18(20)21-17-16-19(2,3)4;/h5-17H2,1-4H3;1H/q+1;/p-1",AXNPABWXOBXVDN-UHFFFAOYSA-M,335.259107136
CCCCCCCCCCCCC(=O)OCC[N+](C)(C)CC(O)C[N+](C)(C)CCOC(=O)CCCCCCCCCCCC.[Cl-].[Cl-],gemini cationic,,,32,,,,,,,,10.1016/j.ces.2022.118208,,10.1007/s11743-000-0121-4,,,,,,,"InChI=1S/C37H76N2O5.2ClH/c1-7-9-11-13-15-17-19-21-23-25-27-36(41)43-31-29-38(3,4)33-35(40)34-39(5,6)30-32-44-37(42)28-26-24-22-20-18-16-14-12-10-8-2;;/h35,40H,7-34H2,1-6H3;2*1H/q+2;;/p-2",ZZJBNOCOOCJBGT-UHFFFAOYSA-L,698.513128892
CCCCCCCCCCCCC(=O)OCC[N+](C)(C)CCCC[N+](C)(C)CCOC(=O)CCCCCCCCCCCC.[Cl-].[Cl-],gemini cationic,,,34,,,,,,,,10.1016/j.ces.2022.118208,,10.1007/s11743-001-0180-6,,,,,,,"InChI=1S/C38H78N2O4.2ClH/c1-7-9-11-13-15-17-19-21-23-25-29-37(41)43-35-33-39(3,4)31-27-28-32-40(5,6)34-36-44-38(42)30-26-24-22-20-18-16-14-12-10-8-2;;/h7-36H2,1-6H3;2*1H/q+2;;/p-2",QILQIQJDAHJZLE-UHFFFAOYSA-L,696.533864336
CCCCCCCCCCCCC(=O)OCC[n+]1ccc(CCCc2cc[n+](CCOC(=O)CCCCCCCCCCCC)cc2)cc1.[Br-].[Br-],gemini cationic,0.0001888,3.72399801003795,,,,,,,25,10.1063/5.0051623,,,,,,,,,,"InChI=1S/C43H72N2O4.2BrH/c1-3-5-7-9-11-13-15-17-19-21-26-42(46)48-38-36-44-32-28-40(29-33-44)24-23-25-41-30-34-45(35-31-41)37-39-49-43(47)27-22-20-18-16-14-12-10-8-6-4-2;;/h28-35H,3-27,36-39H2,1-2H3;2*1H/q+2;;/p-2",VJLLVPVDCPZGCS-UHFFFAOYSA-L,838.385882984
CCCCCCCCCCCCC(=O)OCC[n+]1ccc(CCCc2cc[n+](CCOC(=O)CCCCCCCCCCCC)cc2)cc1.[Cl-].[Cl-],gemini cationic,0.0003908,3.40804544495326,,,,,,,25,10.1063/5.0051623,,,,,,,,,,"InChI=1S/C43H72N2O4.2ClH/c1-3-5-7-9-11-13-15-17-19-21-26-42(46)48-38-36-44-32-28-40(29-33-44)24-23-25-41-30-34-45(35-31-41)37-39-49-43(47)27-22-20-18-16-14-12-10-8-6-4-2;;/h28-35H,3-27,36-39H2,1-2H3;2*1H/q+2;;/p-2",CRGQCZUUEPOSTE-UHFFFAOYSA-L,750.486914144
CCCCCCCCCCCCC(=O)[O-].[K+],anionic,0.0255,1.59345981956604,,,,,,,25,10.1021/ci600462d,,10.1021/j150457a013,,,,,,,,"InChI=1S/C13H26O2.K/c1-2-3-4-5-6-7-8-9-10-11-12-13(14)15;/h2-12H2,1H3,(H,14,15);/q;+1/p-1",MPEKSGRAFPNSLM-UHFFFAOYSA-M,252.14916172
CCCCCCCCCCCCC(C(=O)OCC)S(=O)(=O)[O-].[Na+],anionic,0.00225,2.64781748188864,,,,,,,25,10.1021/acs.jpcb.1c05264,,10.1002/9781118228920,,,,,,,sodium-1-ethoxy-1-oxotetradecane-2-sulfonate,"InChI=1S/C16H32O5S.Na/c1-3-5-6-7-8-9-10-11-12-13-14-15(22(18,19)20)16(17)21-4-2;/h15H,3-14H2,1-2H3,(H,18,19,20);/q;+1/p-1",WKXVUMNKBWXMJE-UHFFFAOYSA-M,358.178989372
CCCCCCCCCCCCC(C(=O)OCCCC)S(=O)(=O)[O-].[Na+],anionic,0.00135,2.86966623150499,,,,,,,25,10.1002/9781118228920.ch3,,,,,,,,,,"InChI=1S/C18H36O5S.Na/c1-3-5-7-8-9-10-11-12-13-14-15-17(24(20,21)22)18(19)23-16-6-4-2;/h17H,3-16H2,1-2H3,(H,20,21,22);/q;+1/p-1",ZSNULYGGKYSUQD-UHFFFAOYSA-M,386.2102895
CCCCCCCCCCCCC(C(=O)[O-])[N+](C)(C)C,zwitterionic,0.0013,2.88605664769316,,,,,,,27,10.1002/9781118228920.ch3,,,,,,,,,2-(trimethylazaniumyl)tetradecanoate,"InChI=1S/C17H35NO2/c1-5-6-7-8-9-10-11-12-13-14-15-16(17(19)20)18(2,3)4/h16H,5-15H2,1-4H3",LVBSECZFJBGOCR-UHFFFAOYSA-N,285.26677936
CCCCCCCCCCCCC(C(=O)[O-])[n+]1ccccc1,zwitterionic,0.0006,3.22184874961636,37,0.00000357,0.46513699360612,35,,,25,10.1002/9781118228920.ch3,,,,10.1002/9781118228920.ch5,10.1002/9781118228920.ch5,calculated,,10.1002/9781118228920.ch5,,"InChI=1S/C19H31NO2/c1-2-3-4-5-6-7-8-9-10-12-15-18(19(21)22)20-16-13-11-14-17-20/h11,13-14,16-18H,2-10,12,15H2,1H3",TYUUXJFTMBSNAH-UHFFFAOYSA-N,305.235479232
CCCCCCCCCCCCC(C)OS(=O)(=O)[O-].[Na+],anionic,0.003304,2.48095996135166,,0.000000555,2.99,,,,25,10.1021/ci600462d,,10.1006/jcis.1996.4680,,,,10.1081/DIS-120014014,,,sodium-tetradecan-2-ylsulfate,"InChI=1S/C14H30O4S.Na/c1-3-4-5-6-7-8-9-10-11-12-13-14(2)18-19(15,16)17;/h14H,3-13H2,1-2H3,(H,15,16,17);/q;+1/p-1",JGRRZEBUCKATJV-UHFFFAOYSA-M,316.168424688
CCCCCCCCCCCCC(C)c1ccc(S(=O)(=O)[O-])cc1.[Na+],anionic,0.0004074,3.38997897533586,,,,,,,25,10.1021/ci600462d,,10.1016/j.theochem.2004.08.039,,,,,,,sodium-4-tetradecan-2-ylbenzenesulfonate,"InChI=1S/C20H34O3S.Na/c1-3-4-5-6-7-8-9-10-11-12-13-18(2)19-14-16-20(17-15-19)24(21,22)23;/h14-18H,3-13H2,1-2H3,(H,21,22,23);/q;+1/p-1",ALSCOADCOGIXMG-UHFFFAOYSA-M,376.204810196