SMILES,Surfactant_Type,CMC,pCMC,AW_ST_CMC,Gamma_max,Area_min,Pi_CMC,pC20,C20,Temp_Celsius,Ref_CMC,Ref_AW_ST_CMC,SubRef_CMC,SubRef_AW_ST_CMC,Ref_Gamma_max,Ref_Pi_CMC,Ref_Area_min,Ref_pC20,Ref_C20,IUPAC_name,InChI,InChIKey,Molecular_Weight
CCCCCCCCCCCCCC(C)OS(=O)(=O)[O-].[Na+],anionic,0.00171,2.76700388960785,,0.000000525,3.16,,,,25,10.1021/ci600462d,,10.1006/jcis.1996.4680,,,,10.1081/DIS-120014014,,,sodium-pentadecan-2-ylsulfate,"InChI=1S/C15H32O4S.Na/c1-3-4-5-6-7-8-9-10-11-12-13-14-15(2)19-20(16,17)18;/h15H,3-14H2,1-2H3,(H,16,17,18);/q;+1/p-1",LFIPWGRFKONAPX-UHFFFAOYSA-M,330.184074752
CCCCCCCCCCCCCC(C)c1ccc(S(=O)(=O)[O-])cc1.[Na+],anionic,0.0002649,3.57691804170277,,,,,,,25,10.1021/ci600462d,,10.1006/jcis.1996.4680,,,,,,,sodium-4-pentadecan-2-ylbenzenesulfonate,"InChI=1S/C21H36O3S.Na/c1-3-4-5-6-7-8-9-10-11-12-13-14-19(2)20-15-17-21(18-16-20)25(22,23)24;/h15-19H,3-14H2,1-2H3,(H,22,23,24);/q;+1/p-1",XTPQLUOVQGKKAD-UHFFFAOYSA-M,390.22046026
CCCCCCCCCCCCCC(CCS(=O)(=O)[O-])OC.[Na+],anionic,0.0003373,3.4719836588108,,,,,,,25,10.1021/ci600462d,,,,,,,,,,"InChI=1S/C17H36O4S.Na/c1-3-4-5-6-7-8-9-10-11-12-13-14-17(21-2)15-16-22(18,19)20;/h17H,3-16H2,1-2H3,(H,18,19,20);/q;+1/p-1",CEEUKKASEJAUGT-UHFFFAOYSA-M,358.21537488
CCCCCCCCCCCCCC(CCS(=O)(=O)[O-])OCCC.[Na+],anionic,0.00008147,4.08900228368936,,,,,,,25,10.1021/ci600462d,,,,,,,,,,"InChI=1S/C19H40O4S.Na/c1-3-5-6-7-8-9-10-11-12-13-14-15-19(23-17-4-2)16-18-24(20,21)22;/h19H,3-18H2,1-2H3,(H,20,21,22);/q;+1/p-1",CQQRELXHYJGBGD-UHFFFAOYSA-M,386.246675008
CCCCCCCCCCCCCC(CCS(=O)(=O)[O-])OCCCC.[Na+],anionic,0.00003483,4.45804652554176,,,,,,,25,10.1021/ci600462d,,,,,,,,,,"InChI=1S/C20H42O4S.Na/c1-3-5-7-8-9-10-11-12-13-14-15-16-20(24-18-6-4-2)17-19-25(21,22)23;/h20H,3-19H2,1-2H3,(H,21,22,23);/q;+1/p-1",XCOSFECPKIOGAL-UHFFFAOYSA-M,400.262325072
CCCCCCCCCCCCCC(O)CCS(=O)(=O)[O-].[Na+],anionic,0.001449,2.83893161452883,,,,,,,25,10.1021/ci600462d,,,,,,,,,sodium-3-hydroxyhexadecane-1-sulfonate,"InChI=1S/C16H34O4S.Na/c1-2-3-4-5-6-7-8-9-10-11-12-13-16(17)14-15-21(18,19)20;/h16-17H,2-15H2,1H3,(H,18,19,20);/q;+1/p-1",QRQBVXMPJPROKL-UHFFFAOYSA-M,344.199724816
CCCCCCCCCCCCCC(O)CO,non-ionic,0.000013,4.88605664769316,,,,,,,25,10.1021/ie4016232,,,,,,,,,"pentadecane-1,2-diol","InChI=1S/C15H32O2/c1-2-3-4-5-6-7-8-9-10-11-12-13-15(17)14-16/h15-17H,2-14H2,1H3",FETBCQJCOOEKPM-UHFFFAOYSA-N,244.240230264
CCCCCCCCCCCCCC(O)OCCOCCOCCOCCOCCOCC,non-ionic,0.00001,5,,,,,,,25,10.1002/9781118228920.ch3,,,,,,,,,,"InChI=1S/C26H54O7/c1-3-5-6-7-8-9-10-11-12-13-14-15-26(27)33-25-24-32-23-22-31-21-20-30-19-18-29-17-16-28-4-2/h26-27H,3-25H2,1-2H3",ZYZBGSQGMTYBSS-UHFFFAOYSA-N,478.386954068
CCCCCCCCCCCCCC(O)OCCOCCOCCOCCOCCOCCOCCOCC,non-ionic,0.000009,5.04575749056068,34,0.00000343,0.48,38,5.97,0.00000107,25,10.1002/9781118228920.ch3,10.1002/9781118228920.ch5,,,10.1002/9781118228920.ch5,10.1002/9781118228920.ch5,,,,,"InChI=1S/C30H62O9/c1-3-5-6-7-8-9-10-11-12-13-14-15-30(31)39-29-28-38-27-26-37-25-24-36-23-22-35-21-20-34-19-18-33-17-16-32-4-2/h30-31H,3-29H2,1-2H3",XNHFQFIVXLWFMA-UHFFFAOYSA-N,566.439383564
CCCCCCCCCCCCCC(OCC)(OCC)OS(=O)(=O)[O-].[Na+],anionic,0.0008511,3.07001940948449,,,,,,,25,10.1021/ci600462d,,10.1021/acs.iecr.9b00504,,,,,,,,"InChI=1S/C18H38O6S.Na/c1-4-7-8-9-10-11-12-13-14-15-16-17-18(22-5-2,23-6-3)24-25(19,20)21;/h4-17H2,1-3H3,(H,19,20,21);/q;+1/p-1",PWVDEWZOQKAYRI-UHFFFAOYSA-M,404.220854184
CCCCCCCCCCCCCC(OCC)OS(=O)(=O)[O-].[Na+],anionic,0.00139,2.85698519974591,,,,,,,25,10.1021/ci600462d,,10.1021/acs.iecr.9b00504,,,,,,,,"InChI=1S/C16H34O5S.Na/c1-3-5-6-7-8-9-10-11-12-13-14-15-16(20-4-2)21-22(17,18)19;/h16H,3-15H2,1-2H3,(H,17,18,19);/q;+1/p-1",FOQXQUXRQSUGFN-UHFFFAOYSA-M,360.194639436
CCCCCCCCCCCCCC(OCCOCC)(OCCOCC)OS(=O)(=O)[O-].[Na+],anionic,0.0006918,3.16001944232166,,,,,,,25,10.1021/ci600462d,,10.1021/la950581j,,,,,,,,"InChI=1S/C22H46O8S.Na/c1-4-7-8-9-10-11-12-13-14-15-16-17-22(30-31(23,24)25,28-20-18-26-5-2)29-21-19-27-6-3;/h4-21H2,1-3H3,(H,23,24,25);/q;+1/p-1",VRRDVSRFFCNAMW-UHFFFAOYSA-M,492.27328368
CCCCCCCCCCCCCC1=NCC[N+]1(CCCCCC[N+]1(CCNCCN)CCN=C1CCCCCCCCCCCCC)CCNCCN.[Br-].[Br-],gemini cationic,,,29,,,,,,,,10.1016/j.ces.2022.118208,,10.1080/01932691.2019.1584112,,,,,,,"InChI=1S/C46H96N8.2BrH/c1-3-5-7-9-11-13-15-17-19-21-25-29-45-51-37-43-53(45,41-35-49-33-31-47)39-27-23-24-28-40-54(42-36-50-34-32-48)44-38-52-46(54)30-26-22-20-18-16-14-12-10-8-6-4-2;;/h49-50H,3-44,47-48H2,1-2H3;2*1H/q+2;;/p-2",MUMWHLVEBAKGST-UHFFFAOYSA-L,918.612469272
CCCCCCCCCCCCCC1=[N+](CCO)CCN1.O=C([O-])O,zwitterionic,,,28.1,,,,,,,,10.1016/j.ces.2022.118208,,10.1007/s11743-012-1332-5,,,,,,,"InChI=1S/C18H36N2O.CH2O3/c1-2-3-4-5-6-7-8-9-10-11-12-13-18-19-14-15-20(18)16-17-21;2-1(3)4/h21H,2-17H2,1H3;(H2,2,3,4)",DOGAJOAUUUWTFQ-UHFFFAOYSA-N,358.283157696
CCCCCCCCCCCCCC1OCC(C[N+](C)(C)C)O1.[Br-],cationic,,,30.3,,,,,,,,10.1016/j.ces.2022.118208,,10.1016/0927-7757(95)03093-S,,,,,,,"InChI=1S/C20H42NO2.BrH/c1-5-6-7-8-9-10-11-12-13-14-15-16-20-22-18-19(23-20)17-21(2,3)4;/h19-20H,5-18H2,1-4H3;1H/q+1;/p-1",HXNNIFOFJHKFED-UHFFFAOYSA-M,407.239891684
CCCCCCCCCCCCCCC(=O)NCC[N+](C)(C)Cc1ccccc1.[Cl-],cationic,,,39.9,,,,,,,,10.1016/j.ces.2022.118208,,10.1021/la026286y,,,,,,,"InChI=1S/C26H46N2O.ClH/c1-4-5-6-7-8-9-10-11-12-13-14-18-21-26(29)27-22-23-28(2,3)24-25-19-16-15-17-20-25;/h15-17,19-20H,4-14,18,21-24H2,1-3H3;1H",XIDRROJTIMXHPH-UHFFFAOYSA-N,438.337691804
CCCCCCCCCCCCCCC(=O)N[N+](C)(C)CCC[N+](C)(C)NC(=O)CCCCCCCCCCCCCC.[Br-].[Br-],gemini cationic,0.00125,2.90308998699194,,,,,,,25,10.1063/5.0051623,,,,,,,,,,"InChI=1S/C37H76N4O2.2BrH/c1-7-9-11-13-15-17-19-21-23-25-27-29-32-36(42)38-40(3,4)34-31-35-41(5,6)39-37(43)33-30-28-26-24-22-20-18-16-14-12-10-8-2;;/h7-35H2,1-6H3;2*1H",ZDPOTRJSQNEBEO-UHFFFAOYSA-N,768.449151936
CCCCCCCCCCCCCCC(=O)OCC[N+](C)(C)CC(O)C[N+](C)(C)CCOC(=O)CCCCCCCCCCCCCC.[Cl-].[Cl-],gemini cationic,,,30,,,,,,,,10.1016/j.ces.2022.118208,,10.1007/s11743-000-0121-4,,,,,,,"InChI=1S/C41H84N2O5.2ClH/c1-7-9-11-13-15-17-19-21-23-25-27-29-31-40(45)47-35-33-42(3,4)37-39(44)38-43(5,6)34-36-48-41(46)32-30-28-26-24-22-20-18-16-14-12-10-8-2;;/h39,44H,7-38H2,1-6H3;2*1H/q+2;;/p-2",VBBGFZBHXKPVFA-UHFFFAOYSA-L,754.575729148
CCCCCCCCCCCCCCC(=O)OCC[n+]1ccc(CCCc2cc[n+](CCOC(=O)CCCCCCCCCCCCCC)cc2)cc1.[Br-].[Br-],gemini cationic,0.000139,3.85698519974591,,,,,,,25,10.1063/5.0051623,,,,,,,,,,"InChI=1S/C47H80N2O4.2BrH/c1-3-5-7-9-11-13-15-17-19-21-23-25-30-46(50)52-42-40-48-36-32-44(33-37-48)28-27-29-45-34-38-49(39-35-45)41-43-53-47(51)31-26-24-22-20-18-16-14-12-10-8-6-4-2;;/h32-39H,3-31,40-43H2,1-2H3;2*1H/q+2;;/p-2",KFAHPTWKEJTYNZ-UHFFFAOYSA-L,894.44848324
CCCCCCCCCCCCCCC(=O)OCC[n+]1ccc(CCCc2cc[n+](CCOC(=O)CCCCCCCCCCCCCC)cc2)cc1.[Cl-].[Cl-],gemini cationic,0.000175,3.75696195131371,,,,,,,25,10.1063/5.0051623,,10.1002/9781119075691.ch43,,,,,,,,"InChI=1S/C47H80N2O4.2ClH/c1-3-5-7-9-11-13-15-17-19-21-23-25-30-46(50)52-42-40-48-36-32-44(33-37-48)28-27-29-45-34-38-49(39-35-45)41-43-53-47(51)31-26-24-22-20-18-16-14-12-10-8-6-4-2;;/h32-39H,3-31,40-43H2,1-2H3;2*1H/q+2;;/p-2",PBPQOFLKYCEEKI-UHFFFAOYSA-L,806.5495144
CCCCCCCCCCCCCCC(=O)[O-].[K+],anionic,0.0066,2.18045606445813,,,,,,,25,10.1021/ci600462d,,10.1021/j150457a013,,,,,,,,"InChI=1S/C15H30O2.K/c1-2-3-4-5-6-7-8-9-10-11-12-13-14-15(16)17;/h2-14H2,1H3,(H,16,17);/q;+1/p-1",XYLAMPYYOCATEA-UHFFFAOYSA-M,280.180461848
CCCCCCCCCCCCCCC(C(=O)OC)S(=O)(=O)[O-].[Na+],anionic,0.00073,3.13667713987954,,,,,,,25,10.1021/acs.jpcb.1c05264,,10.1002/9781118228920,,,,,,,sodium-1-methoxy-1-oxohexadecane-2-sulfonate,"InChI=1S/C17H34O5S.Na/c1-3-4-5-6-7-8-9-10-11-12-13-14-15-16(17(18)22-2)23(19,20)21;/h16H,3-15H2,1-2H3,(H,19,20,21);/q;+1/p-1",HXWNOTVHFBYTKF-UHFFFAOYSA-M,372.194639436
CCCCCCCCCCCCCCC(CCC)OS(=O)(=O)[O-].[Na+],anionic,0.0007194,3.14302956651751,,0.000000454,3.66,,,,25,10.1021/ci600462d,,10.1006/jcis.1996.4680,,,,10.1081/DIS-120014014,,,sodium-octadecan-4-ylsulfate,"InChI=1S/C18H38O4S.Na/c1-3-5-6-7-8-9-10-11-12-13-14-15-17-18(16-4-2)22-23(19,20)21;/h18H,3-17H2,1-2H3,(H,19,20,21);/q;+1/p-1",VGNMMMYUBBDCKA-UHFFFAOYSA-M,372.231024944
CCCCCCCCCCCCCCC(CCCC)OS(=O)(=O)[O-].[Na+],anionic,0.0007998,3.0970186002025,,,,,,,25,10.1021/ci600462d,,10.1006/jcis.1996.4680,,,,,,,,"InChI=1S/C19H40O4S.Na/c1-3-5-7-8-9-10-11-12-13-14-15-16-18-19(17-6-4-2)23-24(20,21)22;/h19H,3-18H2,1-2H3,(H,20,21,22);/q;+1/p-1",TWGQFZCTVNSSQP-UHFFFAOYSA-M,386.246675008
CCCCCCCCCCCCCCC(CCCCCCCCCCCCCC)OS(=O)(=O)[O-].[Na+],anionic,0.00007943,4.10001543745061,,,,,,,25,10.1021/ci600462d,,10.1016/j.theochem.2004.08.039,,,,,,,,"InChI=1S/C29H60O4S.Na/c1-3-5-7-9-11-13-15-17-19-21-23-25-27-29(33-34(30,31)32)28-26-24-22-20-18-16-14-12-10-8-6-4-2;/h29H,3-28H2,1-2H3,(H,30,31,32);/q;+1/p-1",FKCBXOFBUMNEET-UHFFFAOYSA-M,526.403175648
CCCCCCCCCCCCCCC(CSCCCCSCC(CCCCCCCCCCCCCC)[n+]1ccn(C)c1)[n+]1ccn(C)c1.[Br-].[Br-],gemini cationic,0.00002,4.69897000433602,,,,,,,25,10.1063/5.0051623,,10.1002/9781119075691.ch43,,,,,,,,"InChI=1S/C44H84N4S2.2BrH/c1-5-7-9-11-13-15-17-19-21-23-25-27-31-43(47-35-33-45(3)41-47)39-49-37-29-30-38-50-40-44(48-36-34-46(4)42-48)32-28-26-24-22-20-18-16-14-12-10-8-6-2;;/h33-36,41-44H,5-32,37-40H2,1-4H3;2*1H/q+2;;/p-2",UHPWKBZVYCYNJX-UHFFFAOYSA-L,890.450414888
CCCCCCCCCCCCCCC(CSCCCSCC(CCCCCCCCCCCCCC)[n+]1ccn(C)c1)[n+]1ccn(C)c1.[Br-].[Br-],gemini cationic,0.00002099,4.6779875614176,,,,,,,25,10.1063/5.0051623,,10.1002/9781119075691.ch43,,,,,,,,"InChI=1S/C43H82N4S2.2BrH/c1-5-7-9-11-13-15-17-19-21-23-25-27-30-42(46-34-32-44(3)40-46)38-48-36-29-37-49-39-43(47-35-33-45(4)41-47)31-28-26-24-22-20-18-16-14-12-10-8-6-2;;/h32-35,40-43H,5-31,36-39H2,1-4H3;2*1H/q+2;;/p-2",AERZRWVHRQNVFV-UHFFFAOYSA-L,876.434764824
CCCCCCCCCCCCCCC(CSCCSCC(CCCCCCCCCCCCCC)[n+]1ccccc1)[n+]1ccccc1.[Br-].[Br-],gemini cationic,0.00002999,4.52302353424047,,,,,,,25,10.1063/5.0051623,,10.1002/9781119075691.ch43,,,,,,,,"InChI=1S/C44H78N2S2.2BrH/c1-3-5-7-9-11-13-15-17-19-21-23-27-33-43(45-35-29-25-30-36-45)41-47-39-40-48-42-44(46-37-31-26-32-38-46)34-28-24-22-20-18-16-14-12-10-8-6-4-2;;/h25-26,29-32,35-38,43-44H,3-24,27-28,33-34,39-42H2,1-2H3;2*1H/q+2;;/p-2",XFGVBZXBWHMVPT-UHFFFAOYSA-L,856.397316696
CCCCCCCCCCCCCCC(CSCCSCC(CCCCCCCCCCCCCC)[n+]1ccn(C)c1)[n+]1ccn(C)c1.[Br-].[Br-],gemini cationic,0.00002198,4.65797231191253,,,,,,,25,10.1063/5.0051623,,10.1002/9781119075691.ch43,,,,,,,,"InChI=1S/C42H80N4S2.2BrH/c1-5-7-9-11-13-15-17-19-21-23-25-27-29-41(45-33-31-43(3)39-45)37-47-35-36-48-38-42(46-34-32-44(4)40-46)30-28-26-24-22-20-18-16-14-12-10-8-6-2;;/h31-34,39-42H,5-30,35-38H2,1-4H3;2*1H/q+2;;/p-2",OEDAWTIYZKBMLI-UHFFFAOYSA-L,862.41911476
CCCCCCCCCCCCCCC(O)Cn1cc[n+](CCO)c1.[Br-],cationic,0.00044,3.35654732351381,36.85,0.00000302,0.55,35.55,3.7,0.000199,25,10.1016/j.colsurfa.2013.08.063,10.1016/j.ces.2022.118208,,10.1016/j.colsurfa.2013.08.063,10.1016/j.colsurfa.2013.08.063,10.1016/j.colsurfa.2013.08.063,10.1016/j.colsurfa.2013.08.063,,10.1016/j.colsurfa.2013.08.063,N-(2-hydroxyundecyl)imidazolesbromide,"InChI=1S/C21H41N2O2.BrH/c1-2-3-4-5-6-7-8-9-10-11-12-13-14-21(25)19-23-16-15-22(20-23)17-18-24;/h15-16,20-21,24-25H,2-14,17-19H2,1H3;1H/q+1;/p-1",LGAUURJPCDBSKY-UHFFFAOYSA-M,432.235140652
CCCCCCCCCCCCCCC(O)Cn1cc[n+](CCO)c1.[Cl-],cationic,0.00102,2.99139982823808,37.38,0.00000302,0.55,35.02,3.39,0.000407,25,10.1016/j.colsurfa.2013.08.063,10.1016/j.ces.2022.118208,,10.1016/j.colsurfa.2013.08.063,10.1016/j.colsurfa.2013.08.063,10.1016/j.colsurfa.2013.08.063,10.1016/j.colsurfa.2013.08.063,,10.1016/j.colsurfa.2013.08.063,N-(2-hydroxyundecyl)imidazoleschloride,"InChI=1S/C21H41N2O2.ClH/c1-2-3-4-5-6-7-8-9-10-11-12-13-14-21(25)19-23-16-15-22(20-23)17-18-24;/h15-16,20-21,24-25H,2-14,17-19H2,1H3;1H/q+1;/p-1",FIEDWECAELVYKN-UHFFFAOYSA-M,388.285656232
CCCCCCCCCCCCCCC(O)O,non-ionic,0.000013,4.88605664769316,26.5,0.0000051,0.33,45.5,5.77,0.00000169,25,10.1021/acs.jpcb.1c05264,,10.1002/9781118228920,,10.1021/j100442a021,10.1021/j100442a021,10.1021/j100442a021,10.1021/j100442a021,,"pentadecane-1,3-diol","InChI=1S/C15H32O2/c1-2-3-4-5-6-7-8-9-10-11-12-13-14-15(16)17/h15-17H,2-14H2,1H3",FDUBTTQMOFEVRB-UHFFFAOYSA-N,244.240230264
CCCCCCCCCCCCCCC(O)OCCOCCOCCOCCOCCOCCOCCOCC,non-ionic,0.0000035,5.45593195564972,34.6,0.00000359,0.46,37.4,6.31,0.000000493,25,10.1002/9781118228920.ch3,10.1002/9781118228920.ch5,,,10.1002/9781118228920.ch5,10.1002/9781118228920.ch5,,,,,"InChI=1S/C31H64O9/c1-3-5-6-7-8-9-10-11-12-13-14-15-16-31(32)40-30-29-39-28-27-38-26-25-37-24-23-36-22-21-35-20-19-34-18-17-33-4-2/h31-32H,3-30H2,1-2H3",PLKIOIDRBCEZJS-UHFFFAOYSA-N,580.455033628
CCCCCCCCCCCCCCC(OC(=O)CC)S(=O)(=O)[O-].[Na+],anionic,0.0001086,3.96417017474717,,,,,,,25,10.1021/ci600462d,,,,,,,,,,"InChI=1S/C18H36O5S.Na/c1-3-5-6-7-8-9-10-11-12-13-14-15-16-18(24(20,21)22)23-17(19)4-2;/h18H,3-16H2,1-2H3,(H,20,21,22);/q;+1/p-1",WTRZEBPGQHLHDM-UHFFFAOYSA-M,386.2102895
CCCCCCCCCCCCCCC(OC(=O)CCC)S(=O)(=O)[O-].[Na+],anionic,0.0001,4,,,,,,,25,10.1021/ci600462d,,,,,,,,,,"InChI=1S/C19H38O5S.Na/c1-3-5-6-7-8-9-10-11-12-13-14-15-17-19(25(21,22)23)24-18(20)16-4-2;/h19H,3-17H2,1-2H3,(H,21,22,23);/q;+1/p-1",ORVXETZIGHRNIV-UHFFFAOYSA-M,400.225939564
CCCCCCCCCCCCCCC(OC(C)=O)S(=O)(=O)[O-].[Na+],anionic,0.0003097,3.50905879464321,,,,,,,25,10.1021/ci600462d,,,,,,,,,,"InChI=1S/C17H34O5S.Na/c1-3-4-5-6-7-8-9-10-11-12-13-14-15-17(22-16(2)18)23(19,20)21;/h17H,3-15H2,1-2H3,(H,19,20,21);/q;+1/p-1",WYBRYEATCQEHBC-UHFFFAOYSA-M,372.194639436
CCCCCCCCCCCCCCC=CS(=O)(=O)[O-].[Na+],anionic,0.0007499,3.12499664639996,,,,,,,25,10.1021/ci600462d,,,,,,,,,sodium-hexadec-1-ene-1-sulfonate,"InChI=1S/C16H32O3S.Na/c1-2-3-4-5-6-7-8-9-10-11-12-13-14-15-16-20(17,18)19;/h15-16H,2-14H2,1H3,(H,17,18,19);/q;+1/p-1",MVHWMCQWFWUXEE-UHFFFAOYSA-M,326.189160132
CCCCCCCCCCCCCCCC(=O)NC(C(=O)[O-])C(C)C.[Na+],anionic,0.0019,2.72124639904717,,,,,,,25,"['10.1002/9781118228920', '10.1002/9781118228920.ch3', '10.1021/acs.jpcb.1c05264']",,10.1002/9781118228920,,,,,,,sodium-2-(hexadecanoylamino)-3-methylbutanoate,"InChI=1S/C21H41NO3.Na/c1-4-5-6-7-8-9-10-11-12-13-14-15-16-17-19(23)22-20(18(2)3)21(24)25;/h18,20H,4-17H2,1-3H3,(H,22,23)(H,24,25);/q;+1/p-1",JGADVGDHNLQJCN-UHFFFAOYSA-M,377.29058842
CCCCCCCCCCCCCCCC(=O)NC(CC(C)C)C(=O)[O-].[Na+],anionic,0.0015,2.82390874094432,,,,,,,25,10.1002/9781118228920.ch3,,,,,,,,,,"InChI=1S/C22H43NO3.Na/c1-4-5-6-7-8-9-10-11-12-13-14-15-16-17-21(24)23-20(22(25)26)18-19(2)3;/h19-20H,4-18H2,1-3H3,(H,23,24)(H,25,26);/q;+1/p-1",WYWFIRVFGOYWHZ-UHFFFAOYSA-M,391.306238484
CCCCCCCCCCCCCCCC(=O)NC(O)[C@H]1O[C@@H](O[C@@H]([C@H](O)[C@@H](O)CO)[C@H](O)CO)[C@H](O)[C@@H](O)[C@H]1O,sugar-based non-ionic,0.0000175,4.75696195131371,36.5,0.00000336,0.494,35.47,5.46,0.00425355574481513,25,10.1007/s11743-001-0169-1,10.1007/s11743-001-0169-1,,,10.1007/s11743-001-0169-1,calculated,,10.1007/s11743-001-0169-1,calculated,N-hexadecanoyl-N-methyllactitolamine,"InChI=1S/C28H55NO12/c1-2-3-4-5-6-7-8-9-10-11-12-13-14-15-20(34)29-27(39)26-23(37)22(36)24(38)28(41-26)40-25(19(33)17-31)21(35)18(32)16-30/h18-19,21-28,30-33,35-39H,2-17H2,1H3,(H,29,34)/t18-,19+,21+,22-,23+,24+,25+,26-,27?,28+/m0/s1",NHZBKEWIVKTGHD-DUAUCSKRSA-N,597.3724262
CCCCCCCCCCCCCCCC(=O)NC1CCOC1=O,sugar-based non-ionic,0.00000016,6.79588001734408,,,,,,,25,10.1021/acs.jpcb.1c05264,,10.1021/acs.iecr.6b02890,,,,,,,N-(2-oxooxolan-3-yl)hexadecanamide,"InChI=1S/C20H37NO3/c1-2-3-4-5-6-7-8-9-10-11-12-13-14-15-19(22)21-18-16-17-24-20(18)23/h18H,2-17H2,1H3,(H,21,22)",QJIXVOQAEZMUIH-UHFFFAOYSA-N,339.277344044
CCCCCCCCCCCCCCCC(=O)NCCC[N+](C)(C)CC(O)COC1OC(CO)C(O)C(O)C1O.[Cl-],cationic,0.000000478,6.32057210338788,46.1,0.00000426,0.39,25.9,6.44186894151702,0.00159342587623099,25,10.1007/s11743-010-1225-4,10.1016/j.ces.2022.118208,,10.1007/s11743-010-1225-4,10.1007/s11743-010-1225-4,,10.1007/s11743-010-1225-4,calculated,calculated,,"InChI=1S/C30H60N2O8.ClH/c1-4-5-6-7-8-9-10-11-12-13-14-15-16-18-26(35)31-19-17-20-32(2,3)21-24(34)23-39-30-29(38)28(37)27(36)25(22-33)40-30;/h24-25,27-30,33-34,36-38H,4-23H2,1-3H3;1H",SFDBBAUYPUMIKB-UHFFFAOYSA-N,612.411644592
CCCCCCCCCCCCCCCC(=O)NCCC[N+](C)(C)CCOC1OC(CO)C(O)C(O)C1O.[Cl-],cationic,0.00000501,5.30016227413275,51.5,0.00000118,1.41,20.5,5.33727262535583,0.00480896869991159,25,10.1007/s11743-010-1225-4,10.1016/j.ces.2022.118208,,10.1007/s11743-010-1225-4,10.1007/s11743-010-1225-4,,10.1007/s11743-010-1225-4,calculated,calculated,,"InChI=1S/C29H58N2O7.ClH/c1-4-5-6-7-8-9-10-11-12-13-14-15-16-18-25(33)30-19-17-20-31(2,3)21-22-37-29-28(36)27(35)26(34)24(23-32)38-29;/h24,26-29,32,34-36H,4-23H2,1-3H3;1H",PNWQDWLWJALQBT-UHFFFAOYSA-N,582.401079908
CCCCCCCCCCCCCCCC(=O)NCCC[N+](C)(C)Cc1ccccc1.[Cl-],cationic,0.000045,4.34678748622466,41.5,0.00000446,3.39,30.96,6.14,0.000719,25,10.1007/s11743-016-1795-x,10.1016/j.ces.2022.118208,,10.1007/s11743-016-1795-x,10.1007/s11743-016-1795-x,10.1007/s11743-016-1795-x,10.1007/s11743-016-1795-x,10.1007/s11743-016-1795-x,,N-(3-(dimethylbenzylammonium)propyl)palmitamidechloride,"InChI=1S/C28H50N2O.ClH/c1-4-5-6-7-8-9-10-11-12-13-14-15-19-23-28(31)29-24-20-25-30(2,3)26-27-21-17-16-18-22-27;/h16-18,21-22H,4-15,19-20,23-26H2,1-3H3;1H",FCWLLOCBTJAGDE-UHFFFAOYSA-N,466.368991932
CCCCCCCCCCCCCCCC(=O)N[N+](C)(C)CCC[N+](C)(C)NC(=O)CCCCCCCCCCCCCCC.[Br-].[Br-],gemini cationic,0.00125,2.90308998699194,38.2,0.00000231,0.84,33.8,3.59,0.000257,25,10.5650/jos.59.647,10.1016/j.ces.2022.118208,,10.5650/jos.59.647,10.5650/jos.59.647,,10.5650/jos.59.647,,,"1,3-bis(N'-pentadecyl-N,N-dimethylhydrazinium)propanedibromide","InChI=1S/C39H80N4O2.2BrH/c1-7-9-11-13-15-17-19-21-23-25-27-29-31-34-38(44)40-42(3,4)36-33-37-43(5,6)41-39(45)35-32-30-28-26-24-22-20-18-16-14-12-10-8-2;;/h7-37H2,1-6H3;2*1H",RJCLOKMAUPDBSW-UHFFFAOYSA-N,796.480452064
CCCCCCCCCCCCCCCC(=O)OC(C)C(=O)NCCCN(C)C,non-ionic,,,33.4,,,,,,,,10.1016/j.ces.2022.118208,,10.1007/s11743-000-0142-z,,,,,,,"InChI=1S/C24H48N2O3/c1-5-6-7-8-9-10-11-12-13-14-15-16-17-19-23(27)29-22(2)24(28)25-20-18-21-26(3)4/h22H,5-21H2,1-4H3,(H,25,28)",NIJJPHIESJQSCR-UHFFFAOYSA-N,412.366493396
CCCCCCCCCCCCCCCC(=O)OC(C)C(=O)NCCC[N+](C)(C)C.COS(=O)(=O)[O-],zwitterionic,,,31.7,,,,,,,,10.1016/j.ces.2022.118208,,10.1007/s11743-000-0142-z,,,,,,,"InChI=1S/C25H50N2O3.CH4O4S/c1-6-7-8-9-10-11-12-13-14-15-16-17-18-20-24(28)30-23(2)25(29)26-21-19-22-27(3,4)5;1-5-6(2,3)4/h23H,6-22H2,1-5H3;1H3,(H,2,3,4)",QIMRBJRCBIDLCI-UHFFFAOYSA-N,538.365173068
CCCCCCCCCCCCCCCC(=O)OCC(COC(=O)CCCCCCCCCCCCCCC)(C[n+]1ccn(C)c1)C[n+]1ccn(C)c1.[Br-].[Br-],gemini cationic,0.00004198,4.37695756575362,,,,,,,25,10.1063/5.0051623,,,,,,,,,,"InChI=1S/C45H82N4O4.2BrH/c1-5-7-9-11-13-15-17-19-21-23-25-27-29-31-43(50)52-39-45(37-48-35-33-46(3)41-48,38-49-36-34-47(4)42-49)40-53-44(51)32-30-28-26-24-22-20-18-16-14-12-10-8-6-2;;/h33-36,41-42H,5-32,37-40H2,1-4H3;2*1H/q+2;;/p-2",XCMDOCACICMCIW-UHFFFAOYSA-L,900.470281304
CCCCCCCCCCCCCCCC(=O)OCC1OC(OCCC[N+](C)(C)C)C(O)C(O)C1O.[I-],cationic,,,33.5,,,,,,,,10.1016/j.ces.2022.118208,,10.1007/s11743-998-0005-7,,,,,,,"InChI=1S/C28H56NO7.HI/c1-5-6-7-8-9-10-11-12-13-14-15-16-17-19-24(30)35-22-23-25(31)26(32)27(33)28(36-23)34-21-18-20-29(2,3)4;/h23,25-28,31-33H,5-22H2,1-4H3;1H/q+1;/p-1",MAFPCSGZCBFESK-UHFFFAOYSA-M,645.310151132
CCCCCCCCCCCCCCCC(=O)OCC[N+](C)(C)CC(O)C[N+](C)(C)CCOC(=O)CCCCCCCCCCC.[Cl-].[Cl-],gemini cationic,,,45.2,,,,,,,,10.1016/j.ces.2022.118208,,10.1007/s11743-010-1207-6,,,,,,,"InChI=1S/C39H80N2O5.2ClH/c1-7-9-11-13-15-17-18-19-20-22-24-26-28-30-39(44)46-34-32-41(5,6)36-37(42)35-40(3,4)31-33-45-38(43)29-27-25-23-21-16-14-12-10-8-2;;/h37,42H,7-36H2,1-6H3;2*1H/q+2;;/p-2",BCJINXRPRLMSAF-UHFFFAOYSA-L,726.54442902
CCCCCCCCCCCCCCCC(=O)Oc1cccc2ccc[n+](CCCCCCCCCC)c12.[Br-],cationic,0.02,1.69897000433602,49,0.000000799,2.08,26,2.58502665202918,0.0026,25,10.1080/01932691.2012.683979,10.1016/j.ces.2022.118208,,10.1080/01932691.2012.683979,10.1080/01932691.2012.683979,10.1080/01932691.2012.683979,10.1080/01932691.2012.683979,,10.1080/01932691.2012.683979,,"InChI=1S/C35H58NO2.BrH/c1-3-5-7-9-11-13-14-15-16-17-18-20-22-29-34(37)38-33-28-24-26-32-27-25-31-36(35(32)33)30-23-21-19-12-10-8-6-4-2;/h24-28,31H,3-23,29-30H2,1-2H3;1H/q+1;/p-1",UBARRCGPMGSHDA-UHFFFAOYSA-M,603.365092196