SMILES,Surfactant_Type,CMC,pCMC,AW_ST_CMC,Gamma_max,Area_min,Pi_CMC,pC20,C20,Temp_Celsius,Ref_CMC,Ref_AW_ST_CMC,SubRef_CMC,SubRef_AW_ST_CMC,Ref_Gamma_max,Ref_Pi_CMC,Ref_Area_min,Ref_pC20,Ref_C20,IUPAC_name,InChI,InChIKey,Molecular_Weight
C[N+]1(CCC[Si](O[Si](C)(C)C)(O[Si](C)(C)C)O[Si](C)(C)C)CCCC1.[Cl-],cationic,0.0057,2.24412514432751,20,0.00000124,1.34,52.5,4.50426524462325,0.0110617148561383,25,10.1016/j.colsurfa.2012.10.041,10.1016/j.colsurfa.2012.10.041,,,10.1016/j.colsurfa.2012.10.041,10.1016/j.colsurfa.2012.10.041,10.1016/j.colsurfa.2012.10.041,calculated,calculated,,"InChI=1S/C17H44NO3Si4.ClH/c1-18(14-11-12-15-18)16-13-17-25(19-22(2,3)4,20-23(5,6)7)21-24(8,9)10;/h11-17H2,1-10H3;1H/q+1;/p-1",ABTMLUPPYJEYDV-UHFFFAOYSA-M,457.208678068
C[SiH](O[SiH](C)O[SiH](C)O[Si](C)(CCCOCC1CO1)O[Si](C)(C)C)O[SiH](C)O[Si](C)(C)C,non-ionic,0.000416,3.38090666937326,31.2,0.00000061,2.72,40.8,3.38,0.000417,25,10.1016/j.molliq.2019.112073,10.1016/j.molliq.2019.112073,,10.1016/j.molliq.2019.112073,10.1016/j.molliq.2019.112073,,10.1016/j.molliq.2019.112073,10.1016/j.molliq.2019.112073,,,"InChI=1S/C17H48O8Si7/c1-26(21-28(3)23-30(5,6)7)20-27(2)22-29(4)24-32(11,25-31(8,9)10)14-12-13-18-15-17-16-19-17/h17,26-29H,12-16H2,1-11H3",QGQDYOVZHANEHD-UHFFFAOYSA-N,576.173404206
C[SiH](O[SiH](C)O[SiH](C)O[Si](C)(CCCOCC1CO1)O[Si](C)(C)C)O[SiH](C)O[Si](C)(C)O[Si](C)(C)O[Si](C)(C)O[Si](C)(C)O[Si](C)(C)C,non-ionic,0.000356,3.44855000202712,29.7,0.00000044,3.78,42.3,3.42,0.00038,25,10.1016/j.molliq.2019.112073,10.1016/j.molliq.2019.112073,,10.1016/j.molliq.2019.112073,10.1016/j.molliq.2019.112073,,10.1016/j.molliq.2019.112073,10.1016/j.molliq.2019.112073,,,"InChI=1S/C25H72O12Si11/c1-38(28-39(2)30-41(4)32-48(19,34-43(8,9)10)22-20-21-26-23-25-24-27-25)29-40(3)31-44(11,12)35-46(15,16)37-47(17,18)36-45(13,14)33-42(5,6)7/h25,38-41H,20-24H2,1-19H3",YOUDPMBKNPCPMZ-UHFFFAOYSA-N,872.248569574
C[SiH](O[SiH](C)O[SiH](C)O[Si](C)(CCCOCC1CO1)O[Si](C)(C)C)O[SiH](C)O[Si](C)(C)O[Si](C)(C)O[Si](C)(C)O[Si](C)(C)O[Si](C)(C)O[Si](C)(C)O[Si](C)(C)O[Si](C)(C)O[Si](C)(C)C,non-ionic,0.000327,3.48545224733971,29,0.00000037,4.48,43,3.48,0.000331,25,10.1016/j.molliq.2019.112073,10.1016/j.molliq.2019.112073,,10.1016/j.molliq.2019.112073,10.1016/j.molliq.2019.112073,,10.1016/j.molliq.2019.112073,10.1016/j.molliq.2019.112073,,,"InChI=1S/C33H96O16Si15/c1-50(36-51(2)38-53(4)40-64(27,42-55(8,9)10)30-28-29-34-31-33-32-35-33)37-52(3)39-56(11,12)43-58(15,16)45-60(19,20)47-62(23,24)49-63(25,26)48-61(21,22)46-59(17,18)44-57(13,14)41-54(5,6)7/h33,50-53H,28-32H2,1-27H3",MJGKYWCJMBPWAH-UHFFFAOYSA-N,1168.323734942
Cc1cccc(C(=O)N(C)CCCCCCCCCCCC=O)c1C,sugar-based non-ionic,0.00036,3.44369749923271,28,0.00000424,0.39,43.97,4.44,0.0000363,25,10.1021/acs.iecr.6b02890,10.1007/s11743-999-0089-0,10.1007/s11743-999-0089-0,,10.1007/s11743-999-0089-0,calculated,10.1007/s11743-999-0089-0,,,Dodecanoyl-N-methylxylamine,"InChI=1S/C22H35NO2/c1-19-15-14-16-21(20(19)2)22(25)23(3)17-12-10-8-6-4-5-7-9-11-13-18-24/h14-16,18H,4-13,17H2,1-3H3",USHISIRZJIGIFG-UHFFFAOYSA-N,345.26677936
Cn1cc[n+](CCC[Si](O[Si](C)(C)C)(O[Si](C)(C)C)O[Si](C)(C)C)c1.[Cl-],cationic,0.0074,2.13076828026902,20.4,0.00000084,1.98,52.1,5.42546060504538,0.00440303763332015,25,10.1016/j.colsurfa.2012.10.041,10.1016/j.colsurfa.2012.10.041,,,10.1016/j.colsurfa.2012.10.041,10.1016/j.colsurfa.2012.10.041,10.1016/j.colsurfa.2012.10.041,calculated,calculated,,"InChI=1S/C16H39N2O3Si4.ClH/c1-17-13-14-18(16-17)12-11-15-25(19-22(2,3)4,20-23(5,6)7)21-24(8,9)10;/h13-14,16H,11-12,15H2,1-10H3;1H/q+1;/p-1",XCTISACBUSSCPD-UHFFFAOYSA-M,454.172626908
Cn1cc[n+](COCCCCCCOC[n+]2ccn(C)c2)c1.[Cl-].[Cl-],gemini cationic,0.0051286138399136,2.29,47.1,0.00000273,0.56,24.9,2.39479709439406,0.0911911802472077,25,10.1111/cbdd.12236,10.1111/cbdd.12236,10.1111/cbdd.12236,,10.1111/cbdd.12236,10.1111/cbdd.12236,10.1111/cbdd.12236,calculated,calculated,,"InChI=1S/C16H28N4O2.2ClH/c1-17-7-9-19(13-17)15-21-11-5-3-4-6-12-22-16-20-10-8-18(2)14-20;;/h7-10,13-14H,3-6,11-12,15-16H2,1-2H3;2*1H/q+2;;/p-2",NEAZIPFOEQEWKS-UHFFFAOYSA-L,378.158931496
Cn1cc[n+](COCCCCCOC[n+]2ccn(C)c2)c1.[Cl-].[Cl-],gemini cationic,0.0056234132519034,2.25000000000001,58.5,0.00000268,0.58,13.5,2.10838985379056,0.121433334528865,25,10.1111/cbdd.12236,10.1111/cbdd.12236,10.1111/cbdd.12236,,10.1111/cbdd.12236,10.1111/cbdd.12236,10.1111/cbdd.12236,calculated,calculated,,"InChI=1S/C15H26N4O2.2ClH/c1-16-6-8-18(12-16)14-20-10-4-3-5-11-21-15-19-9-7-17(2)13-19;;/h6-9,12-13H,3-5,10-11,14-15H2,1-2H3;2*1H/q+2;;/p-2",CDGXBNBUQJARMG-UHFFFAOYSA-L,364.143281432
Cn1cc[n+](COCCCCOC[n+]2ccn(C)c2)c1.[Cl-].[Cl-],gemini cationic,0.0060255958607435,2.22000000000001,59.6,0.00000271,0.56,12.4,2.05625799273381,0.127931797035018,25,10.1111/cbdd.12236,10.1111/cbdd.12236,10.1111/cbdd.12236,,10.1111/cbdd.12236,10.1111/cbdd.12236,10.1111/cbdd.12236,calculated,calculated,,"InChI=1S/C14H24N4O2.2ClH/c1-15-5-7-17(11-15)13-19-9-3-4-10-20-14-18-8-6-16(2)12-18;;/h5-8,11-12H,3-4,9-10,13-14H2,1-2H3;2*1H/q+2;;/p-2",ZLPWXGPWJQCLHZ-UHFFFAOYSA-L,350.127631368
Cn1cc[n+](COCCCOC[n+]2ccn(C)c2)c1.[Cl-].[Cl-],gemini cationic,0.0066069344800759,2.18,60.8,0.00000274,0.54,11.2,1.99247986029177,0.136356859859079,25,10.1111/cbdd.12236,10.1111/cbdd.12236,10.1111/cbdd.12236,,10.1111/cbdd.12236,10.1111/cbdd.12236,10.1111/cbdd.12236,calculated,calculated,,"InChI=1S/C13H22N4O2.2ClH/c1-14-4-6-16(10-14)12-18-8-3-9-19-13-17-7-5-15(2)11-17;;/h4-7,10-11H,3,8-9,12-13H2,1-2H3;2*1H/q+2;;/p-2",IGXCJBKWRKZRHN-UHFFFAOYSA-L,336.111981304
Cn1cc[n+](COCCOC[n+]2ccn(C)c2)c1.[Cl-].[Cl-],gemini cationic,0.0070794578438413,2.15000000000001,61.9,0.00000275,0.52,10.1,1.9398069706725,0.143731691531887,25,10.1111/cbdd.12236,10.1111/cbdd.12236,10.1111/cbdd.12236,,10.1111/cbdd.12236,10.1111/cbdd.12236,10.1111/cbdd.12236,calculated,calculated,,"InChI=1S/C12H20N4O2.2ClH/c1-13-3-5-15(9-13)11-17-7-8-18-12-16-6-4-14(2)10-16;;/h3-6,9-10H,7-8,11-12H2,1-2H3;2*1H/q+2;;/p-2",WCQQREQAFFKMKJ-UHFFFAOYSA-L,322.09633124
FC(F)(F)C(F)(F)C(F)(F)C(F)(F)C(F)(F)C(F)(F)CC[n+]1ccccc1CCCCCCCCCCCCc1cccc[n+]1CCC(F)(F)C(F)(F)C(F)(F)C(F)(F)C(F)(F)C(F)(F)F.[Cl-].[Cl-],gemini cationic,0.001099,2.95900230757651,,,,,,,25,10.1063/5.0051623,,10.1002/9781119075691.ch43,,,,,,,"1-(3,3,4,4,5,5,6,6,7,7,8,8,8-tridecafluorooctyl)-2-[12-[1-(3,3,4,4,5,5,6,6,7,7,8,8,8-tridecafluorooctyl)pyridin-1-ium-2-yl]dodecyl]pyridin-1-ium-dichloride","InChI=1S/C38H40F26N2.2ClH/c39-27(40,29(43,44)31(47,48)33(51,52)35(55,56)37(59,60)61)19-23-65-21-13-11-17-25(65)15-9-7-5-3-1-2-4-6-8-10-16-26-18-12-14-22-66(26)24-20-28(41,42)30(45,46)32(49,50)34(53,54)36(57,58)38(62,63)64;;/h11-14,17-18,21-22H,1-10,15-16,19-20,23-24H2;2*1H/q+2;;/p-2",BHASMBWBSQVGPB-UHFFFAOYSA-L,1088.21533836
FC(F)(F)C(F)(F)C(F)(F)C(F)(F)C(F)(F)C(F)(F)CC[n+]1ccccc1CCCCCCCCc1cccc[n+]1CCC(F)(F)C(F)(F)C(F)(F)C(F)(F)C(F)(F)C(F)(F)F.[Cl-].[Cl-],gemini cationic,0.001291,2.88907375773358,,,,,,,25,10.1063/5.0051623,,10.1002/9781119075691.ch43,,,,,,,,"InChI=1S/C34H32F26N2.2ClH/c35-23(36,25(39,40)27(43,44)29(47,48)31(51,52)33(55,56)57)15-19-61-17-9-7-13-21(61)11-5-3-1-2-4-6-12-22-14-8-10-18-62(22)20-16-24(37,38)26(41,42)28(45,46)30(49,50)32(53,54)34(58,59)60;;/h7-10,13-14,17-18H,1-6,11-12,15-16,19-20H2;2*1H/q+2;;/p-2",RXFRSSKCKPJVAX-UHFFFAOYSA-L,1032.152738104
FC(F)(F)C(F)(F)C(F)(F)C(F)(F)C(F)(F)C(F)(F)CC[n+]1ccccc1CCCCc1cccc[n+]1CCC(F)(F)C(F)(F)C(F)(F)C(F)(F)C(F)(F)C(F)(F)F.[Cl-].[Cl-],gemini cationic,0.001862,2.73002032335468,,,,,,,25,10.1063/5.0051623,,10.1002/9781119075691.ch43,,,,,,,"1-(3,3,4,4,5,5,6,6,7,7,8,8,8-tridecafluorooctyl)-2-[4-[1-(3,3,4,4,5,5,6,6,7,7,8,8,8-tridecafluorooctyl)pyridin-1-ium-2-yl]butyl]pyridin-1-ium-dichloride","InChI=1S/C30H24F26N2.2ClH/c31-19(32,21(35,36)23(39,40)25(43,44)27(47,48)29(51,52)53)11-15-57-13-5-3-9-17(57)7-1-2-8-18-10-4-6-14-58(18)16-12-20(33,34)22(37,38)24(41,42)26(45,46)28(49,50)30(54,55)56;;/h3-6,9-10,13-14H,1-2,7-8,11-12,15-16H2;2*1H/q+2;;/p-2",ODUPVCLKXWHTLX-UHFFFAOYSA-L,976.090137848
FC(F)(F)C(F)(F)C(F)(F)C(F)(F)C(F)(F)C(F)(F)CC[n+]1ccccc1CCCc1cccc[n+]1CCC(F)(F)C(F)(F)C(F)(F)C(F)(F)C(F)(F)C(F)(F)F.[Cl-].[Cl-],gemini cationic,0.00191,2.71896663275227,,,,,,,25,10.1063/5.0051623,,10.1002/9781119075691.ch43,,,,,,,"1-(3,3,4,4,5,5,6,6,7,7,8,8,8-tridecafluorooctyl)-2-[3-[1-(3,3,4,4,5,5,6,6,7,7,8,8,8-tridecafluorooctyl)pyridin-1-ium-2-yl]propyl]pyridin-1-ium-dichloride","InChI=1S/C29H22F26N2.2ClH/c30-18(31,20(34,35)22(38,39)24(42,43)26(46,47)28(50,51)52)10-14-56-12-3-1-6-16(56)8-5-9-17-7-2-4-13-57(17)15-11-19(32,33)21(36,37)23(40,41)25(44,45)27(48,49)29(53,54)55;;/h1-4,6-7,12-13H,5,8-11,14-15H2;2*1H/q+2;;/p-2",IHUWMNHGXGYPNX-UHFFFAOYSA-L,962.074487784
O=C([O-])C(C(F)(F)F)(C(F)(F)F)C(F)(F)C(F)(F)C(F)(F)C(F)F.[Na+],anionic,0.03,1.52287874528034,,,,,,,25,10.1002/9781118228920.ch3,,,,,,,,,,"InChI=1S/C8H2F14O2.Na/c9-1(10)4(11,12)6(15,16)5(13,14)3(2(23)24,7(17,18)19)8(20,21)22;/h1H,(H,23,24);/q;+1/p-1",XDJIDDKBILYUBG-UHFFFAOYSA-M,417.965068632
O=C([O-])C(F)(F)C(F)(F)C(F)(F)C(F)(F)C(F)(C(F)(F)F)C(F)(F)F.[Na+],anionic,0.03,1.52287874528034,20.2,0.0000028,0.59,51.8,2.57,0.00268,25,10.1021/acs.jpcb.1c05264,,10.1002/9781118228920,,10.1002/9781118228920.ch5,10.1002/9781118228920.ch5,,,,"sodium-2,2,3,3,4,4,5,5,6,7,7,7-dodecafluoro-6-(trifluoromethyl)heptanoate","InChI=1S/C8HF15O2.Na/c9-2(10,1(24)25)4(12,13)6(16,17)5(14,15)3(11,7(18,19)20)8(21,22)23;/h(H,24,25);/q;+1/p-1",BPXXAVYRMUUMMP-UHFFFAOYSA-M,435.95564682
O=C([O-])C(F)(F)C(F)(F)C(F)(F)C(F)(F)C(F)(F)C(F)(F)C(F)(F)C(F)(F)F.[Li+],anionic,0.0049,2.30980391997149,,,,,,,25,10.1021/acs.jpcb.1c05264,,10.1002/9781118228920,,,,,,,"lithium-2,2,3,3,4,4,5,5,6,6,7,7,8,8,9,9,9-heptadecafluorononanoate","InChI=1S/C9HF17O2.Li/c10-2(11,1(27)28)3(12,13)4(14,15)5(16,17)6(18,19)7(20,21)8(22,23)9(24,25)26;/h(H,27,28);/q;+1/p-1",KHEDTTZLTBNBRP-UHFFFAOYSA-M,469.97868853
O=C([O-])C(F)(F)C(F)(F)C(F)(F)C(F)(F)C(F)(F)C(F)(F)C(F)(F)F.[K+],anionic,0.029,1.53760200210104,20.6,0.0000039,0.43,51.4,2.51,0.00312,25,10.1021/acs.jpcb.1c05264,,10.1002/9781118228920,,10.1002/9781118228920.ch5,10.1002/9781118228920.ch5,,,,"potassium-2,2,3,3,4,4,5,5,6,6,7,7,8,8,8-pentadecafluorooctanoate","InChI=1S/C8HF15O2.K/c9-2(10,1(24)25)3(11,12)4(13,14)5(15,16)6(17,18)7(19,20)8(21,22)23;/h(H,24,25);/q;+1/p-1",WPDDXKNWUVLZMQ-UHFFFAOYSA-M,451.92958422
O=C([O-])C(F)(F)C(F)(F)C(F)(F)C(F)(F)C(F)(F)C(F)(F)C(F)(F)F.[Li+],anionic,0.033,1.48148606012211,,,,,,,25,10.1021/acs.jpcb.1c05264,,10.1002/9781118228920,,,,,,,"lithium-2,2,3,3,4,4,5,5,6,6,7,7,8,8,8-pentadecafluorooctanoate","InChI=1S/C8HF15O2.Li/c9-2(10,1(24)25)3(11,12)4(13,14)5(15,16)6(17,18)7(19,20)8(21,22)23;/h(H,24,25);/q;+1/p-1",DGPVEYAYQQVGGL-UHFFFAOYSA-M,419.98188209
O=C([O-])C(F)(F)C(F)(F)C(F)(F)C(F)(F)C(F)(F)C(F)(F)C(F)(F)F.[Na+],anionic,0.03,1.52287874528034,24.6,0.000004,0.42,47.4,2.5,0.00319,25,10.1021/acs.jpcb.1c05264,,10.1002/9781118228920,,10.1002/9781118228920.ch5,10.1002/9781118228920.ch5,,,,"sodium-2,2,3,3,4,4,5,5,6,6,7,7,8,8,8-pentadecafluorooctanoate","InChI=1S/C8HF15O2.Na/c9-2(10,1(24)25)3(11,12)4(13,14)5(15,16)6(17,18)7(19,20)8(21,22)23;/h(H,24,25);/q;+1/p-1",LWHQXUODFPPQTL-UHFFFAOYSA-M,435.95564682
O=C([O-])C(F)(F)C(F)(F)C(F)(F)C(F)(F)C(F)(F)C(F)(F)F.[Li+],anionic,0.0049,2.30980391997149,,,,,,,25,10.1002/9781118228920.ch3,,,,,,,,,"lithium-2,2,3,3,4,4,5,5,6,6,7,7,7-tridecafluoroheptanoate","InChI=1S/C7HF13O2.Li/c8-2(9,1(21)22)3(10,11)4(12,13)5(14,15)6(16,17)7(18,19)20;/h(H,21,22);/q;+1/p-1",YJVWHJIWMHRFMN-UHFFFAOYSA-M,369.98507565
O=C([O-])C(F)(F)C(F)(F)C(F)(F)C(F)(F)C(F)(F)F.[K+],anionic,0.029,1.53760200210104,,,,,,,25,10.1002/9781118228920.ch3,,,,,,,,,"potassium-2,2,3,3,4,4,5,5,6,6,6-undecafluorohexanoate","InChI=1S/C6HF11O2.K/c7-2(8,1(18)19)3(9,10)4(11,12)5(13,14)6(15,16)17;/h(H,18,19);/q;+1/p-1",IABQBQMLCJSMAR-UHFFFAOYSA-M,351.93597134
O=C([O-])C(F)(F)C(F)(F)C(F)(F)C(F)(F)C(F)(F)F.[Li+],anionic,0.033,1.48148606012211,,,,,,,25,10.1002/9781118228920.ch3,,,,,,,,,"lithium-2,2,3,3,4,4,5,5,6,6,6-undecafluorohexanoate","InChI=1S/C6HF11O2.Li/c7-2(8,1(18)19)3(9,10)4(11,12)5(13,14)6(15,16)17;/h(H,18,19);/q;+1/p-1",QYBZJIFKYIEKBM-UHFFFAOYSA-M,319.98826921
O=C([O-])C(F)(F)C(F)(F)C(F)(F)C(F)(F)C(F)(F)F.[Na+],anionic,0.03,1.52287874528034,,,,,,,25,10.1002/9781118228920.ch3,,,,,,,,,"sodium-2,2,3,3,4,4,5,5,6,6,6-undecafluorohexanoate","InChI=1S/C6HF11O2.Na/c7-2(8,1(18)19)3(9,10)4(11,12)5(13,14)6(15,16)17;/h(H,18,19);/q;+1/p-1",UIMRWXUIVFZGSD-UHFFFAOYSA-M,335.96203394
O=S(=O)([O-])C(F)(F)C(F)(F)C(F)(F)C(F)(F)C(F)(F)C(F)(F)C(F)(F)C(F)(F)F.[Li+],anionic,0.0063,2.20065945054642,29.8,0.000003,0.55,42.2,3.2,0.00063,25,10.1002/9781118228920,,10.1002/9781118228920,,10.1002/9781118228920.ch5,10.1002/9781118228920.ch5,,,10.1002/9781118228920.ch5,"lithium-1,1,2,2,3,3,4,4,5,5,6,6,7,7,8,8,8-heptadecafluorooctane-1-sulfonate","InChI=1S/C8HF17O3S.Li/c9-1(10,3(13,14)5(17,18)7(21,22)23)2(11,12)4(15,16)6(19,20)8(24,25)29(26,27)28;/h(H,26,27,28);/q;+1/p-1",XVCUGNWRDDNCRD-UHFFFAOYSA-M,505.94567415
OCCN(CCO)CCC(F)(F)C(F)(F)C(F)(F)C(F)(F)C(F)(F)C(F)(F)C(F)(F)C(F)(F)F,non-ionic,0.00016,3.79588001734408,,,,,,,20,10.1002/9781118228920.ch3,,,,,,,,,"2-[3,3,4,4,5,5,6,6,7,7,8,8,9,9,10,10,10-heptadecafluorodecyl(2-hydroxyethyl)amino]ethanol","InChI=1S/C14H14F17NO2/c15-7(16,1-2-32(3-5-33)4-6-34)8(17,18)9(19,20)10(21,22)11(23,24)12(25,26)13(27,28)14(29,30)31/h33-34H,1-6H2",MOUDFVMYURTYQA-UHFFFAOYSA-N,551.075308428
OCCOCCOCCOCCOCCOCCOCCOCCOCCOCCOCCOCCOCCOCCOCCC(F)(F)C(F)(F)C(F)(F)C(F)(F)C(F)(F)C(F)(F)F,non-ionic,0.00061,3.21467016498923,,,,,,,20,10.1002/9781118228920.ch3,,,,,,,,,"2-[2-[2-[2-[2-[2-[2-[2-[2-[2-[2-[2-[2-[2-(3,3,4,4,5,5,6,6,7,7,8,8,8-tridecafluorooctoxy)ethoxy]ethoxy]ethoxy]ethoxy]ethoxy]ethoxy]ethoxy]ethoxy]ethoxy]ethoxy]ethoxy]ethoxy]ethoxy]ethanol","InChI=1S/C36H61F13O15/c37-31(38,32(39,40)33(41,42)34(43,44)35(45,46)36(47,48)49)1-3-51-5-7-53-9-11-55-13-15-57-17-19-59-21-23-61-25-27-63-29-30-64-28-26-62-24-22-60-20-18-58-16-14-56-12-10-54-8-6-52-4-2-50/h50H,1-30H2",CNSCOBFDJJVZFM-UHFFFAOYSA-N,980.380288112
OCCOCCOCCOCCOCCOCCOCCOCCSCCC(F)(F)C(F)(F)C(F)(F)C(F)(F)C(F)(F)C(F)(F)F,non-ionic,0.00004797,4.3190302815341,,,,,,,25,10.1021/ie4016232,,,,,,,,,"2-[2-[2-[2-[2-[2-[2-[2-(3,3,4,4,5,5,6,6,7,7,8,8,8-tridecafluorooctylsulfanyl)ethoxy]ethoxy]ethoxy]ethoxy]ethoxy]ethoxy]ethoxy]ethanol","InChI=1S/C24H37F13O8S/c25-19(26,20(27,28)21(29,30)22(31,32)23(33,34)24(35,36)37)1-17-46-18-16-45-15-14-44-13-12-43-11-10-42-9-8-41-7-6-40-5-4-39-3-2-38/h38H,1-18H2",UTBHOMLNGKNDLS-UHFFFAOYSA-N,732.200156004
OCCOCCOCCOCCOCCOCCSCCC(F)(F)C(F)(F)C(F)(F)C(F)(F)C(F)(F)C(F)(F)F,non-ionic,0.00003698,4.43203309317685,,,,,,,25,10.1021/ie4016232,,,,,,,,,,"InChI=1S/C20H29F13O6S/c21-15(22,16(23,24)17(25,26)18(27,28)19(29,30)20(31,32)33)1-13-40-14-12-39-11-10-38-9-8-37-7-6-36-5-4-35-3-2-34/h34H,1-14H2",VOCCWGUEVZCMEP-UHFFFAOYSA-N,644.147726508
OCCOCCOCCOCCSCCC(F)(F)C(F)(F)C(F)(F)C(F)(F)C(F)(F)C(F)(F)F,non-ionic,0.00002799,4.55299710153384,,,,,,,25,10.1021/ie4016232,,,,,,,,,"2-[2-[2-[2-(3,3,4,4,5,5,6,6,7,7,8,8,8-tridecafluorooctylsulfanyl)ethoxy]ethoxy]ethoxy]ethanol","InChI=1S/C16H21F13O4S/c17-11(18,1-9-34-10-8-33-7-6-32-5-4-31-3-2-30)12(19,20)13(21,22)14(23,24)15(25,26)16(27,28)29/h30H,1-10H2",HVOWVEVSZCKCCE-UHFFFAOYSA-N,556.095297012
OCCOCCOCCSCCC(F)(F)C(F)(F)C(F)(F)C(F)(F)C(F)(F)C(F)(F)F,non-ionic,0.000025,4.60205999132796,,,,,,,25,10.1021/ie4016232,,,,,,,,,"2-[2-[2-(3,3,4,4,5,5,6,6,7,7,8,8,8-tridecafluorooctylsulfanyl)ethoxy]ethoxy]ethanol","InChI=1S/C14H17F13O3S/c15-9(16,1-7-31-8-6-30-5-4-29-3-2-28)10(17,18)11(19,20)12(21,22)13(23,24)14(25,26)27/h28H,1-8H2",IOGSRXKLAFCVIR-UHFFFAOYSA-N,512.069082264
OCCOCCSCCOCCSCCOCCSCCC(F)(F)C(F)(F)C(F)(F)C(F)(F)C(F)(F)C(F)(F)F,non-ionic,0.000026,4.58502665202918,,,,,,,25,10.1021/ie4016232,,,,,,,,,,"InChI=1S/C20H29F13O4S3/c21-15(22,16(23,24)17(25,26)18(27,28)19(29,30)20(31,32)33)1-9-38-10-5-36-6-13-40-14-8-37-7-12-39-11-4-35-3-2-34/h34H,1-14H2",LPHAEYJKVNLDKF-UHFFFAOYSA-N,676.102039268
OCCOCCSCCOCCSCCOCCSCCOCCSCCC(F)(F)C(F)(F)C(F)(F)C(F)(F)C(F)(F)C(F)(F)F,non-ionic,0.00003396,4.46903231842809,,,,,,,25,10.1021/ie4016232,,,,,,,,,,"InChI=1S/C24H37F13O5S4/c25-19(26,20(27,28)21(29,30)22(31,32)23(33,34)24(35,36)37)1-11-43-12-5-40-6-15-45-16-9-42-10-18-46-17-8-41-7-14-44-13-4-39-3-2-38/h38H,1-18H2",IZARRBSFJXIHLZ-UHFFFAOYSA-N,780.131625144