SMILES,Surfactant_Type,CMC,pCMC,AW_ST_CMC,Gamma_max,Area_min,Pi_CMC,pC20,C20,Temp_Celsius,Ref_CMC,Ref_AW_ST_CMC,SubRef_CMC,SubRef_AW_ST_CMC,Ref_Gamma_max,Ref_Pi_CMC,Ref_Area_min,Ref_pC20,Ref_C20,IUPAC_name,InChI,InChIKey,Molecular_Weight
CCCCCCCCCCCCCCCCCC[N+]1(CC#CC[N+]2(CCCCCCCCCCCCCCCCCC)CCCC2)CCCC1.[Br-].[Br-],gemini cationic,0.0000105,4.97881070093006,,,,,,,25,10.1063/5.0051623,,,,,,,,,,"InChI=1S/C48H94N2.2BrH/c1-3-5-7-9-11-13-15-17-19-21-23-25-27-29-31-33-41-49(43-35-36-44-49)47-39-40-48-50(45-37-38-46-50)42-34-32-30-28-26-24-22-20-18-16-14-12-10-8-6-4-2;;/h3-38,41-48H2,1-2H3;2*1H/q+2;;/p-2",FFEDMJKQZMOCOH-UHFFFAOYSA-L,856.578375208
CCCCCCCCCCCCCCCCCC[N+]1(CC#CC[N+]2(CCCCCCCCCCCCCCCCCC)CCCCC2)CCCCC1.[Br-].[Br-],gemini cationic,0.0000166,4.77989191195995,,,,,,,25,10.1063/5.0051623,,,,,,,,,,"InChI=1S/C50H98N2.2BrH/c1-3-5-7-9-11-13-15-17-19-21-23-25-27-29-31-35-43-51(45-37-33-38-46-51)49-41-42-50-52(47-39-34-40-48-52)44-36-32-30-28-26-24-22-20-18-16-14-12-10-8-6-4-2;;/h3-40,43-50H2,1-2H3;2*1H/q+2;;/p-2",NOCOXZMDHVMBPG-UHFFFAOYSA-L,884.609675336
CCCCCCCCCCCCCCCCCC[N+]1CCCCC1.[Cl-],cationic,0.00024,3.61978875828839,,,,,,,25,10.1016/0021-9797(76)90178-8,,,,,,,,,,"InChI=1S/C23H47N.ClH/c1-2-3-4-5-6-7-8-9-10-11-12-13-14-15-16-18-21-24-22-19-17-20-23-24;/h2-23H2,1H3;1H/q+1;/p-1",GUUJIKCTJDUTSC-UHFFFAOYSA-M,372.339703184
CCCCCCCCCCCCCCCCCC[n+]1cccc(COC(=O)CC(O)(CC(=O)OCc2ccc[n+](CCCCCCCCCCCCCCCCCC)c2)C(=O)OCc2ccc[n+](CCCCCCCCCCCCCCCCCC)c2)c1.[Br-].[Br-].[Br-],gemini cationic,0.000095,4.02227639471115,27.5,0.000000938,1.77,44.8,6.62,0.00000024,25,10.1016/j.molliq.2020.112817,10.1016/j.ces.2022.118208,,10.1016/j.molliq.2020.112817,10.1016/j.molliq.2020.112817,10.1016/j.molliq.2020.112817,10.1016/j.molliq.2020.112817,10.1016/j.molliq.2020.112817,,"3,3′-(((2-hydroxy-2-(2-((1-octadecylpyridin-1-ium-3-yl)methoxy)-2oxoethyl)succinyl)bis(oxy))bis(methylene))bis(1-octadecylpyridin1-ium)bromide","InChI=1S/C78H134N3O7.3BrH/c1-4-7-10-13-16-19-22-25-28-31-34-37-40-43-46-49-58-79-61-52-55-72(66-79)69-86-75(82)64-78(85,77(84)88-71-74-57-54-63-81(68-74)60-51-48-45-42-39-36-33-30-27-24-21-18-15-12-9-6-3)65-76(83)87-70-73-56-53-62-80(67-73)59-50-47-44-41-38-35-32-29-26-23-20-17-14-11-8-5-2;;;/h52-57,61-63,66-68,85H,4-51,58-60,64-65,69-71H2,1-3H3;3*1H/q+3;;;/p-3",XBPNSTWNLIVQPM-UHFFFAOYSA-K,1461.777189928
CCCCCCCCCCCCCCCCCC[n+]1ccccc1.[Cl-],cationic,0.00024,3.61978875828839,,,,,,,25,10.1021/acs.jpcb.1c05264,,10.1002/9781118228920,,,,,,,1-octadecylpyridin-1-ium-chloride,"InChI=1S/C23H42N.ClH/c1-2-3-4-5-6-7-8-9-10-11-12-13-14-15-16-18-21-24-22-19-17-20-23-24;/h17,19-20,22-23H,2-16,18,21H2,1H3;1H/q+1;/p-1",WJDJWDHXZBNQNE-UHFFFAOYSA-M,367.300578024
CCCCCCCCCCCCCCCCCC[n+]1ccn(C)c1.[Br-],cationic,,,40.5,,,,,,,,10.1016/j.ces.2022.118208,,10.1016/j.colsurfa.2017.07.018,,,,,,,"InChI=1S/C22H43N2.BrH/c1-3-4-5-6-7-8-9-10-11-12-13-14-15-16-17-18-19-24-21-20-23(2)22-24;/h20-22H,3-19H2,1-2H3;1H/q+1;/p-1",ICXUUUJKTYZESK-UHFFFAOYSA-M,414.260961476
CCCCCCCCCCCCCCCCCC[n+]1ccn(CCOC(=O)NCCCC)c1.[Br-],cationic,,,41.5,,,,,,,,10.1016/j.ces.2022.118208,,10.1016/j.molliq.2020.114094,,,,,,,"InChI=1S/C28H53N3O2.BrH/c1-3-5-7-8-9-10-11-12-13-14-15-16-17-18-19-20-22-30-23-24-31(27-30)25-26-33-28(32)29-21-6-4-2;/h23-24,27H,3-22,25-26H2,1-2H3;1H",QCNOTFXGTCTVSN-UHFFFAOYSA-N,543.339940068
CCCCCCCCCCCCCCCCCCc1cc[nH+]cc1.[Cl-],cationic,0.00024,3.61978875828839,,,,,,,25,10.1002/9781118228920.ch3,,,,,,,,,,"InChI=1S/C23H41N.ClH/c1-2-3-4-5-6-7-8-9-10-11-12-13-14-15-16-17-18-23-19-21-24-22-20-23;/h19-22H,2-18H2,1H3;1H",WDQGJECBJHTZNY-UHFFFAOYSA-N,367.300578024
CCCCCCCCCCCCCCCCCOCOOCCOCCOCCCCCC,non-ionic,0.00002642,4.57806718672149,,,,,,,25,10.1021/ie4016232,,,,,,,,,,"InChI=1S/C28H58O5/c1-3-5-7-9-10-11-12-13-14-15-16-17-18-19-21-23-31-28-33-32-27-26-30-25-24-29-22-20-8-6-4-2/h3-28H2,1-2H3",GHUVIBSDZQDBGX-UHFFFAOYSA-N,474.428424956
CCCCCCCCCCCCCCCCCS(=O)(=O)[O-].[Na+],anionic,0.0002317,3.63507396621002,,,,,,,25,10.1021/ci600462d,,,,,,,,,sodium-heptadecane-1-sulfonate,"InChI=1S/C17H36O3S.Na/c1-2-3-4-5-6-7-8-9-10-11-12-13-14-15-16-17-21(18,19)20;/h2-17H2,1H3,(H,18,19,20);/q;+1/p-1",JIBIRKJWPLYULV-UHFFFAOYSA-M,342.22046026
CCCCCCCCCCCCCCCCN(C)C(=O)C(O)C(O)C(O)C(O)CO,non-ionic,,,33.3,,,,,,,,10.1016/j.ces.2022.118208,,10.1002/0471670561,,,,,,,"InChI=1S/C23H47NO6/c1-3-4-5-6-7-8-9-10-11-12-13-14-15-16-17-24(2)23(30)22(29)21(28)20(27)19(26)18-25/h19-22,25-29H,3-18H2,1-2H3",DEXKRCMEVBPMED-UHFFFAOYSA-N,433.340338224
CCCCCCCCCCCCCCCCN(C)C(=O)COCOCOCO,non-ionic,0.00000774,5.11125903931711,33.5,0.00000365,0.454942210184616,38.5,6.11,0.000000766,20,10.1002/9781118228920.ch3,10.1002/9781118228920.ch5,,10.1006/jcis.2001.7704,10.1002/9781118228920.ch5,10.1002/9781118228920.ch5,calculated,10.1006/jcis.2001.7704,,,"InChI=1S/C22H45NO5/c1-3-4-5-6-7-8-9-10-11-12-13-14-15-16-17-23(2)22(25)18-26-20-28-21-27-19-24/h24H,3-21H2,1-2H3",HNNQTZRQYLDOBQ-UHFFFAOYSA-N,403.32977354
CCCCCCCCCCCCCCCCN(C)C(=O)[C@H](O)[C@@H](O)[C@H](O[C@@H]1O[C@H](C)[C@H](O)[C@H](O)[C@H]1O)[C@H](O)CO,sugar-based non-ionic,0.0000093,5.03151705144607,35.6,0.00000376,0.44,37.2,6,0.000001,20,10.1021/acs.iecr.6b02890,10.1016/j.jcis.2018.01.051,10.1016/j.molliq.2018.01.037,,10.1006/jcis.2001.7704,10.1006/jcis.2001.7704,10.1006/jcis.2001.7704,10.1006/jcis.2001.7704,,N-hexadecyl-N-methyllactobionamide,"InChI=1S/C29H57NO10/c1-4-5-6-7-8-9-10-11-12-13-14-15-16-17-18-30(3)28(38)25(36)24(35)27(21(32)19-31)40-29-26(37)23(34)22(33)20(2)39-29/h20-27,29,31-37H,4-19H2,1-3H3/t20-,21-,22+,23+,24-,25-,26-,27-,29+/m1/s1",CJPMMXRZBBMTQK-ZZDOROOASA-N,579.398247024
CCCCCCCCCCCCCCCCN=Cc1ccc([N+](C)(CC)CC)cc1.[I-],cationic,0.00073,3.13667713987954,33,0.00000614,0.27,44,3.40769149636859,0.033117564216129,25,10.1007/s11743-009-1156-0,10.1016/j.ces.2022.118208,,10.1201/9780203911518,10.1007/s11743-009-1156-0,10.1007/s11743-009-1156-0,10.1007/s11743-009-1156-0,calculated,calculated,4-diethylaminobenzaldehyde-1-hexadecylamine,"InChI=1S/C28H51N2.HI/c1-5-8-9-10-11-12-13-14-15-16-17-18-19-20-25-29-26-27-21-23-28(24-22-27)30(4,6-2)7-3;/h21-24,26H,5-20,25H2,1-4H3;1H/q+1;/p-1",SHKDKVUTKXGHPG-UHFFFAOYSA-M,542.309697632
CCCCCCCCCCCCCCCCNC(=O)C(O)C(O)C(OC1OC(CO)C(O)C(O)C1O)C(O)CO,sugar-based non-ionic,0.0000093,5.03151705144607,34.8,0.00000376,0.44,37.2,6,0.000000979,20,10.1021/acs.iecr.6b02890,,10.1006/jcis.2001.7704,,10.1006/jcis.2001.7704,10.1006/jcis.2001.7704,10.1006/jcis.2001.7704,10.1006/jcis.2001.7704,,,"InChI=1S/C28H55NO11/c1-2-3-4-5-6-7-8-9-10-11-12-13-14-15-16-29-27(38)24(36)23(35)26(19(32)17-30)40-28-25(37)22(34)21(33)20(18-31)39-28/h19-26,28,30-37H,2-18H2,1H3,(H,29,38)",LCMLXEILDKQYQM-UHFFFAOYSA-N,581.37751158
CCCCCCCCCCCCCCCCNC(=O)C[N+](C)(C)CCNC(=O)COc1ccccc1.[Cl-],cationic,0.0000461,4.33629907461035,39.8,0.00000188,0.88,32.2,4.9,0.0000126,25,10.1039/C4RA14645J,10.1016/j.ces.2022.118208,,10.1039/C4RA14645J,10.1039/C4RA14645J,10.1039/C4RA14645J,10.1039/C4RA14645J,,10.1039/C4RA14645J,"N-hexadecylcaramoylmethyl-N-[2-(2-phenoxyacetamido)-ethyl]-N,Ndimethylammoniumchloride","InChI=1S/C30H53N3O3.ClH/c1-4-5-6-7-8-9-10-11-12-13-14-15-16-20-23-31-29(34)26-33(2,3)25-24-32-30(35)27-36-28-21-18-17-19-22-28;/h17-19,21-22H,4-16,20,23-27H2,1-3H3,(H-,31,32,34,35);1H",OELUSBQDBGGBEU-UHFFFAOYSA-N,539.385370268
CCCCCCCCCCCCCCCCOC(=O)C[N+](C)(C)CCCN=Cc1ccccc1O.[Cl-],cationic,,,31.6,,,,,,,,10.1016/j.ces.2022.118208,,10.1039/C5RA21626E,,,,,,,"InChI=1S/C30H52N2O3.ClH/c1-4-5-6-7-8-9-10-11-12-13-14-15-16-19-25-35-30(34)27-32(2,3)24-20-23-31-26-28-21-17-18-22-29(28)33;/h17-18,21-22,26H,4-16,19-20,23-25,27H2,1-3H3;1H",UOXAFNKNPKPORY-UHFFFAOYSA-N,524.374471236
CCCCCCCCCCCCCCCCOC(=O)C[N+](C)(C)CCOCCO.[Cl-],cationic,0.000684,3.16494389827988,27.7,0.0000011,1.51,44.3,5.06,0.00000873,20,10.1016/j.molliq.2017.12.105,10.1016/j.ces.2022.118208,,10.1016/j.molliq.2017.12.105,10.1016/j.molliq.2017.12.105,10.1016/j.molliq.2017.12.105,10.1016/j.molliq.2017.12.105,10.1016/j.molliq.2017.12.105,,"2-(hexadecyloxy)-N-(2-(2-hydroxyethoxy)ethyl)-N,N-dimethyl-2-oxoethanaminiumchloride","InChI=1S/C24H50NO4.ClH/c1-4-5-6-7-8-9-10-11-12-13-14-15-16-17-20-29-24(27)23-25(2,3)18-21-28-22-19-26;/h26H,4-23H2,1-3H3;1H/q+1;/p-1",ZNJFPVYUGRLHRO-UHFFFAOYSA-M,451.34283676
CCCCCCCCCCCCCCCCOC(=O)C[N+](CC)(CC)c1ccc(C=NCCN=Cc2ccc([N+](CC)(CC)CC(=O)OCCCCCCCCCCCCCCCC)cc2)cc1.[Cl-].[Cl-],gemini cationic,0.00646,2.18976748200492,42.1,0.00000073,2.266,29.7,3.34008379993015,0.000457,25,10.1080/01932690903269784,10.1016/j.ces.2022.118208,,10.1080/01932690903269784,10.1080/01932690903269784,10.1080/01932690903269784,10.1080/01932690903269784,,10.1080/01932690903269784,,"InChI=1S/C60H104N4O4.2ClH/c1-7-13-15-17-19-21-23-25-27-29-31-33-35-37-49-67-59(65)53-63(9-3,10-4)57-43-39-55(40-44-57)51-61-47-48-62-52-56-41-45-58(46-42-56)64(11-5,12-6)54-60(66)68-50-38-36-34-32-30-28-26-24-22-20-18-16-14-8-2;;/h39-46,51-52H,7-38,47-50,53-54H2,1-6H3;2*1H/q+2;;/p-2",UODYCNJJLBQNPC-UHFFFAOYSA-L,1014.743463168
CCCCCCCCCCCCCCCCOC(=O)C[N+]1(C)CCCC1.[Br-],cationic,0.00031,3.50863830616573,37.1,0.00000185,0.9,34.68,4.21,0.0000616,25,10.1007/s00396-013-2971-4,10.1016/j.ces.2022.118208,,10.1007/s00396-013-2971-4,10.1007/s00396-013-2971-4,10.1007/s00396-013-2971-4,10.1007/s00396-013-2971-4,10.1007/s00396-013-2971-4,10.1007/s00396-013-2971-4,1-(2-(Hexadecyloxy)-2-oxoethyl)-1-methylpyrrolidin-1-iumbromide,"InChI=1S/C23H46NO2.BrH/c1-3-4-5-6-7-8-9-10-11-12-13-14-15-18-21-26-23(25)22-24(2)19-16-17-20-24;/h3-22H2,1-2H3;1H/q+1;/p-1",PQMQOHXADJPYKR-UHFFFAOYSA-M,447.271191812
CCCCCCCCCCCCCCCCOC(=O)C[N+]1(C)CCCC1.[Cl-],cationic,0.00037,3.43179827593301,41,0.00000277,0.6,30.78,3.85,0.000141,25,10.1007/s00396-013-2971-4,10.1016/j.ces.2022.118208,,10.1007/s00396-013-2971-4,10.1007/s00396-013-2971-4,10.1007/s00396-013-2971-4,10.1007/s00396-013-2971-4,10.1007/s00396-013-2971-4,10.1007/s00396-013-2971-4,1-(2-(Hexadecyloxy)-2-oxoethyl)-1-methylpyrrolidin-1-iumchloride,"InChI=1S/C23H46NO2.ClH/c1-3-4-5-6-7-8-9-10-11-12-13-14-15-18-21-26-23(25)22-24(2)19-16-17-20-24;/h3-22H2,1-2H3;1H/q+1;/p-1",KLDFZSZFYGMRJR-UHFFFAOYSA-M,403.321707392
CCCCCCCCCCCCCCCCOC(=O)C[n+]1c(N=Cc2ccc(OC)cc2)sc2ccccc21.[Br-],cationic,0.094,1.0268721464003,39.2,,,32.8,,,25,10.1080/01932691003756902,10.1016/j.ces.2022.118208,,10.1080/01932691003756902,,,,,,"2-[(4-methoxybenzylidene)amino]-3-(2-oxo-2-hexadecyloxyethyl)-1,3-benzothiazol-3-iumBromide","InChI=1S/C33H47N2O3S.BrH/c1-3-4-5-6-7-8-9-10-11-12-13-14-15-18-25-38-32(36)27-35-30-19-16-17-20-31(30)39-33(35)34-26-28-21-23-29(37-2)24-22-28;/h16-17,19-24,26H,3-15,18,25,27H2,1-2H3;1H/q+1;/p-1",DHBAAGRASBTTBT-UHFFFAOYSA-M,630.249076464
CCCCCCCCCCCCCCCCOC(=O)C[n+]1c(N=Cc2ccccc2)sc2ccccc21.[Br-],cationic,0.106,0.97469413473523,40.4,,,31.6,,,25,10.1080/01932691003756902,10.1016/j.ces.2022.118208,,10.1080/01932691003756902,,,,,,"2-(benzylideneamino)-3-(2-oxo-2-hexadecyloxyethyl)-1,3-benzothiazol-3-iumbromide","InChI=1S/C32H45N2O2S.BrH/c1-2-3-4-5-6-7-8-9-10-11-12-13-14-20-25-36-31(35)27-34-29-23-18-19-24-30(29)37-32(34)33-26-28-21-16-15-17-22-28;/h15-19,21-24,26H,2-14,20,25,27H2,1H3;1H/q+1;/p-1",JVNLGQTZOYPEMD-UHFFFAOYSA-M,600.23851178
CCCCCCCCCCCCCCCCOC(=O)C[n+]1cccc(N=Cc2ccc(O)c(OC)c2)c1.[Br-],cationic,0.00056,3.2518119729938,29.8,0.00000134,1.236,42,3.86966623150499,0.000135,25,10.1016/j.colsurfa.2011.09.032,10.1016/j.ces.2022.118208,,10.1016/j.colsurfa.2011.09.032,10.1016/j.colsurfa.2011.09.032,10.1016/j.colsurfa.2011.09.032,10.1016/j.colsurfa.2011.09.032,,10.1016/j.colsurfa.2011.09.032,,"InChI=1S/C31H46N2O4.BrH/c1-3-4-5-6-7-8-9-10-11-12-13-14-15-16-22-37-31(35)26-33-21-17-18-28(25-33)32-24-27-19-20-29(34)30(23-27)36-2;/h17-21,23-25H,3-16,22,26H2,1-2H3;1H",XOLQEDCDXAGEQW-UHFFFAOYSA-N,590.271920084
CCCCCCCCCCCCCCCCOC(=O)C[n+]1cccc2ccc(CN3CCCCC3)c(O)c21.[Br-],cationic,0.0005,3.30102999566398,42.5,0.00000523,3.17,29.5,5.51,0.00000309,25,10.1016/j.bmc.2005.07.031,10.1016/j.ces.2022.118208,,10.1016/j.bmc.2005.07.031,10.1016/j.bmc.2005.07.031,10.1016/j.bmc.2005.07.031,10.1016/j.bmc.2005.07.031,10.1016/j.bmc.2005.07.031,,7-Pipridinomethyl-8-hydroxy-N-methylcarboxyhexadecyl-quinoliniumbromide,"InChI=1S/C33H52N2O3.BrH/c1-2-3-4-5-6-7-8-9-10-11-12-13-14-18-26-38-31(36)28-35-25-19-20-29-21-22-30(33(37)32(29)35)27-34-23-16-15-17-24-34;/h19-22,25H,2-18,23-24,26-28H2,1H3;1H",GGLDNHQKGRYUOE-UHFFFAOYSA-N,604.323955656
CCCCCCCCCCCCCCCCOC(=O)C[n+]1cccc2ccc(CN3CCOCC3)c(O)c21.[Br-],cationic,0.0001,4,45,0.00000289,5.75,27,3.04,0.000912,25,10.1016/j.bmc.2005.07.031,10.1016/j.ces.2022.118208,,10.1016/j.bmc.2005.07.031,10.1016/j.bmc.2005.07.031,10.1016/j.bmc.2005.07.031,10.1016/j.bmc.2005.07.031,10.1016/j.bmc.2005.07.031,,7-Morphilinomethyl-8-hydroxy-N-methylcarboxyhexadecyl-quinoliniumbromide,"InChI=1S/C32H50N2O4.BrH/c1-2-3-4-5-6-7-8-9-10-11-12-13-14-15-23-38-30(35)27-34-20-16-17-28-18-19-29(32(36)31(28)34)26-33-21-24-37-25-22-33;/h16-20H,2-15,21-27H2,1H3;1H",BQAVWPXINSDTEW-UHFFFAOYSA-N,606.303220212
CCCCCCCCCCCCCCCCOC(=O)C[n+]1oc(C)cc1N=Cc1ccccc1.[Br-],cationic,,,37.8,,,,,,,,10.1016/j.ces.2022.118208,,10.1016/j.corsci.2011.06.029,,,,,,,"InChI=1S/C29H45N2O3.BrH/c1-3-4-5-6-7-8-9-10-11-12-13-14-15-19-22-33-29(32)25-31-28(23-26(2)34-31)30-24-27-20-17-16-18-21-27;/h16-18,20-21,23-24H,3-15,19,22,25H2,1-2H3;1H/q+1;/p-1",GPFUJQJDJPCADJ-UHFFFAOYSA-M,548.2613554
CCCCCCCCCCCCCCCCOC(=O)[N+](CC)(CC)CC.[I-],cationic,0.0055,2.25963731050576,33,0.00000142,1.17,38.78,2.36,0.00447,25,10.3139/113.110437,10.1016/j.ces.2022.118208,,10.3139/113.110437,10.3139/113.110437,10.3139/113.110437,10.3139/113.110437,10.3139/113.110437,10.3139/113.110437,"2-(tetradecyloxy)-2-oxoethyl-N,N,N-triethylammoniumiodide","InChI=1S/C23H48NO2.HI/c1-5-9-10-11-12-13-14-15-16-17-18-19-20-21-22-26-23(25)24(6-2,7-3)8-4;/h5-22H2,1-4H3;1H/q+1;/p-1",CJXWABVAEJONDW-UHFFFAOYSA-M,497.272977776
CCCCCCCCCCCCCCCCOCC(O)C[N+](C)(C)CCCC[N+](C)(C)CC(O)COCCCCCCCCCCCCCCCC.[Br-].[Br-],gemini cationic,0.000003,5.52287874528034,39.2,0.00000191,0.87,32.8,6.12,0.000000758,25,10.1007/s11743-015-1734-2,10.1016/j.ces.2022.118208,,10.1007/s11743-015-1734-2,10.1007/s11743-015-1734-2,,10.1007/s11743-015-1734-2,10.1007/s11743-015-1734-2,,"Butanediyl-bis[N-(3-hexadecoxyl-2-hydroxy)propyl-N,NdimethylammoniumBromide]","InChI=1S/C46H98N2O4.2BrH/c1-7-9-11-13-15-17-19-21-23-25-27-29-31-35-39-51-43-45(49)41-47(3,4)37-33-34-38-48(5,6)42-46(50)44-52-40-36-32-30-28-26-24-22-20-18-16-14-12-10-8-2;;/h45-46,49-50H,7-44H2,1-6H3;2*1H/q+2;;/p-2",JHBCBIDLNVQUBW-UHFFFAOYSA-L,900.589333816
CCCCCCCCCCCCCCCCOCC(O)C[n+]1ccn(C)c1.[Br-],cationic,0.00027,3.56863623584101,40.7,0.00000208,0.8,31.08,4,0.0001,25,10.1016/j.colsurfa.2011.11.022,10.1016/j.ces.2022.118208,,10.1016/j.colsurfa.2011.11.022,10.1016/j.colsurfa.2011.11.022,10.1016/j.colsurfa.2011.11.022,10.1016/j.colsurfa.2011.11.022,10.1016/j.colsurfa.2011.11.022,10.1016/j.colsurfa.2011.11.022,3-(3-(hexadecyloxy)-2-hydroxypropyl)-1-methyl-1Himidazol-3-iumbromide,"InChI=1S/C23H45N2O2.BrH/c1-3-4-5-6-7-8-9-10-11-12-13-14-15-16-19-27-21-23(26)20-25-18-17-24(2)22-25;/h17-18,22-23,26H,3-16,19-21H2,1-2H3;1H/q+1;/p-1",WFWUMBJWXGSQKR-UHFFFAOYSA-M,460.26644078
CCCCCCCCCCCCCCCCOCC(O)C[n+]1ccn(C)c1.[Cl-],cationic,0.00134,2.87289520163519,42,0.00000173,0.96,29.78,3.75,0.000177,25,10.1016/j.colsurfa.2011.11.022,10.1016/j.ces.2022.118208,,10.1016/j.colsurfa.2011.11.022,10.1016/j.colsurfa.2011.11.022,10.1016/j.colsurfa.2011.11.022,10.1016/j.colsurfa.2011.11.022,10.1016/j.colsurfa.2011.11.022,10.1016/j.colsurfa.2011.11.022,3-(2-hydroxyl-3(tetradecyloxy)propyl-1-methyl-1H-imidazol3-iumchloride,"InChI=1S/C23H45N2O2.ClH/c1-3-4-5-6-7-8-9-10-11-12-13-14-15-16-19-27-21-23(26)20-25-18-17-24(2)22-25;/h17-18,22-23,26H,3-16,19-21H2,1-2H3;1H/q+1;/p-1",FKPPAYDJXICWLQ-UHFFFAOYSA-M,416.31695636
CCCCCCCCCCCCCCCCOCC(O)Cn1cc[n+](CCC)c1.[Br-],cationic,0.000053,4.27572413039921,50.5,0.00000118,0.93,21.74,1.8,0.016,25,10.1016/j.jiec.2014.01.032,10.1016/j.ces.2022.118208,,10.1016/j.jiec.2014.01.032,10.1016/j.jiec.2014.01.032,10.1016/j.jiec.2014.01.032,10.1016/j.jiec.2014.01.032,,10.1016/j.jiec.2014.01.032,1-(3-(Hexadecyloxy)-2-hydroxypropyl)-3-propyl-1H-imidazol-3-iumbromide,"InChI=1S/C25H49N2O2.BrH/c1-3-5-6-7-8-9-10-11-12-13-14-15-16-17-21-29-23-25(28)22-27-20-19-26(24-27)18-4-2;/h19-20,24-25,28H,3-18,21-23H2,1-2H3;1H/q+1;/p-1",PPZNMTNAQCEURC-UHFFFAOYSA-M,488.297740908
CCCCCCCCCCCCCCCCOCC(O)Cn1cc[n+](CCC)c1.[Cl-],cationic,0.000067,4.17392519729917,54.2,0.00000111,0.88,17.97,1.96,0.011,25,10.1016/j.jiec.2014.01.032,10.1016/j.ces.2022.118208,,10.1016/j.jiec.2014.01.032,10.1016/j.jiec.2014.01.032,10.1016/j.jiec.2014.01.032,10.1016/j.jiec.2014.01.032,,10.1016/j.jiec.2014.01.032,1-(3-(Hexadecyloxy)-2-hydroxypropyl)-3-propyl-1H-imidazol-3-iumchloride,"InChI=1S/C25H49N2O2.ClH/c1-3-5-6-7-8-9-10-11-12-13-14-15-16-17-21-29-23-25(28)22-27-20-19-26(24-27)18-4-2;/h19-20,24-25,28H,3-18,21-23H2,1-2H3;1H/q+1;/p-1",VBVIZBFYIGXWIM-UHFFFAOYSA-M,444.348256488
CCCCCCCCCCCCCCCCOCC(O)Cn1cc[n+](CCC[n+]2ccn(CC(O)COCCCCCCCCCCCCCCCC)c2)c1.[Br-].[Br-],gemini cationic,0.0004111,3.38605252321965,50.1,0.00000201,0.08,21.84,0.46,0.35,25,10.1007/s11743-013-1472-2,10.1016/j.ces.2022.118208,,10.1007/s11743-013-1472-2,10.1007/s11743-013-1472-2,10.1007/s11743-013-1472-2,10.1007/s11743-013-1472-2,,10.1007/s11743-013-1472-2,"1,3-bis(1(3-alkoxy2-hydroxypropyl)-1H-imidazol-3-ium)propanebromide","InChI=1S/C47H90N4O4.2BrH/c1-3-5-7-9-11-13-15-17-19-21-23-25-27-29-38-54-42-46(52)40-50-36-34-48(44-50)32-31-33-49-35-37-51(45-49)41-47(53)43-55-39-30-28-26-24-22-20-18-16-14-12-10-8-6-4-2;;/h34-37,44-47,52-53H,3-33,38-43H2,1-2H3;2*1H/q+2;;/p-2",CHUOUNOONSYQHM-UHFFFAOYSA-L,932.53288156
CCCCCCCCCCCCCCCCOCC(O)Cn1cc[n+](CC[n+]2ccn(CC(O)COCCCCCCCCCCCCCCCC)c2)c1.[Br-].[Br-],gemini cationic,0.000429,3.36754270781528,48.1,0.00000271,0.06,24.33,0.52,0.299,25,10.1007/s11743-013-1472-2,10.1016/j.ces.2022.118208,,10.1007/s11743-013-1472-2,10.1007/s11743-013-1472-2,10.1007/s11743-013-1472-2,10.1007/s11743-013-1472-2,,10.1007/s11743-013-1472-2,"1,2-bis(1(3-alkoxy-2-hydroxypropyl)-1H-imidazol-3-ium)ethanebromide","InChI=1S/C46H88N4O4.2BrH/c1-3-5-7-9-11-13-15-17-19-21-23-25-27-29-37-53-41-45(51)39-49-35-33-47(43-49)31-32-48-34-36-50(44-48)40-46(52)42-54-38-30-28-26-24-22-20-18-16-14-12-10-8-6-4-2;;/h33-36,43-46,51-52H,3-32,37-42H2,1-2H3;2*1H/q+2;;/p-2",JOGSXBKUGUHFOX-UHFFFAOYSA-L,918.517231496
CCCCCCCCCCCCCCCCOCCOCCOCCOCCOCCOCCO,non-ionic,0.00000166,5.77989191195995,31.8,,,40.2,,,25,10.1021/acs.jpcb.1c05264,10.1016/j.ces.2022.118208,10.1002/9781118228920,10.1002/0471670561,,,,,,2-[2-[2-[2-[2-(2-hexadecoxyethoxy)ethoxy]ethoxy]ethoxy]ethoxy]ethanol,"InChI=1S/C28H58O7/c1-2-3-4-5-6-7-8-9-10-11-12-13-14-15-17-30-19-21-32-23-25-34-27-28-35-26-24-33-22-20-31-18-16-29/h29H,2-28H2,1H3",UOFCAQWHTQFNHS-UHFFFAOYSA-N,506.418254196
CCCCCCCCCCCCCCCCOCCOCCOCCOCCOCCOCCOCCO,non-ionic,0.0000017,5.76955107862173,32.8,0.00000437,0.38,39.2,6.53913654069039,0.00144573629469552,25,10.1021/acs.jpcb.1c05264,10.1016/j.ces.2022.118208,10.1002/9781118228920,10.1002/0471670561,,,,calculated,calculated,2-[2-[2-[2-[2-[2-(2-hexadecoxyethoxy)ethoxy]ethoxy]ethoxy]ethoxy]ethoxy]ethanol,"InChI=1S/C30H62O8/c1-2-3-4-5-6-7-8-9-10-11-12-13-14-15-17-32-19-21-34-23-25-36-27-29-38-30-28-37-26-24-35-22-20-33-18-16-31/h31H,2-30H2,1H3",IUFWXADACDFZNB-UHFFFAOYSA-N,550.444468944
CCCCCCCCCCCCCCCCOCCOCCOCCOCCOCCOCCOCCOCCOCCO,non-ionic,0.0000021,5.67778070526608,35.8,0.00000313,0.53,36.2,6.58436405859557,0.00138180583578762,25,10.1021/acs.jpcb.1c05264,10.1016/j.ces.2022.118208,10.1002/9781118228920,10.1002/0471670561,,,10.1111/j.2042-7158.1962.tb10540.x,calculated,calculated,2-[2-[2-[2-[2-[2-[2-[2-(2-hexadecoxyethoxy)ethoxy]ethoxy]ethoxy]ethoxy]ethoxy]ethoxy]ethoxy]ethanol,"InChI=1S/C34H70O10/c1-2-3-4-5-6-7-8-9-10-11-12-13-14-15-17-36-19-21-38-23-25-40-27-29-42-31-33-44-34-32-43-30-28-41-26-24-39-22-20-37-18-16-35/h35H,2-34H2,1H3",CSZUWXUVMBXAOG-UHFFFAOYSA-N,638.49689844