SMILES,Surfactant_Type,CMC,pCMC,AW_ST_CMC,Gamma_max,Area_min,Pi_CMC,pC20,C20,Temp_Celsius,Ref_CMC,Ref_AW_ST_CMC,SubRef_CMC,SubRef_AW_ST_CMC,Ref_Gamma_max,Ref_Pi_CMC,Ref_Area_min,Ref_pC20,Ref_C20,IUPAC_name,InChI,InChIKey,Molecular_Weight
CCCCCCCCCCOc1ccc[n+](CC(O)C[n+]2cccc(OCCCCCCCCCC)c2)c1,gemini cationic,0.001,3,26.2,0.00000083,1.98,45.8,2.87289520163519,0.00134,25,10.1021/la5045267,10.1021/la5045267,,,10.1021/la5045267,10.1021/la5045267,10.1021/la5045267,,10.1021/la5045267,,"InChI=1S/C33H56N2O3/c1-3-5-7-9-11-13-15-17-25-37-32-21-19-23-34(29-32)27-31(36)28-35-24-20-22-33(30-35)38-26-18-16-14-12-10-8-6-4-2/h19-24,29-31,36H,3-18,25-28H2,1-2H3/q+2",CUCPLBNSAUWBOS-UHFFFAOYSA-N,528.42799649218
CCCCCCCCCCOc1ccc[n+](CC(O)C[n+]2cccc(OCCCCCCCCCC)c2)c1.[Br-].[Br-],gemini cationic,0.001,3,,,,,,,25,10.1063/5.0051623,,,,,,,,,,"InChI=1S/C33H56N2O3.2BrH/c1-3-5-7-9-11-13-15-17-25-37-32-21-19-23-34(29-32)27-31(36)28-35-24-20-22-33(30-35)38-26-18-16-14-12-10-8-6-4-2;;/h19-24,29-31,36H,3-18,25-28H2,1-2H3;2*1H/q+2;;/p-2",TVKWNOQVWOTHFF-UHFFFAOYSA-L,686.265767852
CCCCCCCCCCS(=O)(=O)[O-].[Na+],anionic,0.03999,1.39804859586648,,,,,,,25,"['10.1021/acs.jpcb.1c05264', '10.1021/ci600462d']",,10.1002/9781118228920,,,,,,,sodium-decane-1-sulfonate,"InChI=1S/C10H22O3S.Na/c1-2-3-4-5-6-7-8-9-10-14(11,12)13;/h2-10H2,1H3,(H,11,12,13);/q;+1/p-1",AIMUHNZKNFEZSN-UHFFFAOYSA-M,244.110909812
CCCCCCCCCCSC(O)[C@H]1OC(=O)[C@@H](O)[C@@H]1O,sugar-based non-ionic,0.000033,4.48148606012211,28,0.00000501,0.33,44.75,5.4,0.00000398,20,10.1021/acs.iecr.6b02890,10.1016/j.jcis.2018.01.051,10.1016/j.molliq.2018.01.037,,10.1016/j.jcis.2004.01.020,calculated,10.1016/j.jcis.2004.01.020,10.1016/j.jcis.2004.01.020,,S-decyl5-thio-D-arabinonolactone,"InChI=1S/C15H28O5S/c1-2-3-4-5-6-7-8-9-10-21-15(19)13-11(16)12(17)14(18)20-13/h11-13,15-17,19H,2-10H2,1H3/t11-,12-,13-,15?/m0/s1",VBJAKFBJKVGNPD-BOEIJXPTSA-N,320.165744996
CCCCCCCCCCSC1OC(=O)[C@H](O)[C@@H](O)[C@@H]1O,sugar-based non-ionic,0.000023,4.63827216398241,29.5,0.00000495,0.34,43.25,5.4,0.00000398,20,10.1021/acs.iecr.6b02890,10.1016/j.jcis.2004.01.020,10.1016/j.molliq.2018.01.037,,10.1016/j.jcis.2004.01.020,calculated,10.1016/j.jcis.2004.01.020,10.1016/j.jcis.2004.01.020,,S-decyl5-thio-D-xylonolactone,"InChI=1S/C15H28O5S/c1-2-3-4-5-6-7-8-9-10-21-15-13(18)11(16)12(17)14(19)20-15/h11-13,15-18H,2-10H2,1H3/t11-,12-,13+,15?/m1/s1",HFMBGCHVTCEAJT-DPORPMIOSA-N,320.165744996
CCCCCCCCCCSC[C@H](O)[C@H](O)[C@@H](O)CO,sugar-based non-ionic,0.0004,3.39794000867204,28.2,0.00000363,0.46,44.55,5.4,0.00000398,20,10.1021/acs.iecr.6b02890,10.1016/j.jcis.2004.01.020,10.1016/j.molliq.2018.01.037,,10.1016/j.jcis.2004.01.020,calculated,10.1016/j.jcis.2004.01.020,10.1016/j.jcis.2004.01.020,,S-decyl1-thio-L-xylitol,"InChI=1S/C15H32O4S/c1-2-3-4-5-6-7-8-9-10-20-12-14(18)15(19)13(17)11-16/h13-19H,2-12H2,1H3/t13-,14-,15+/m0/s1",HNRZVFWASHMFMR-SOUVJXGZSA-N,308.202130504
CCCCCCCCCC[N+](C)(C)C.[Br-],cationic,0.00476,2.32239304727951,36.2,0.00000302,0.55,35.77,2.78059529112258,0.0620015873948179,25,"['10.1016/j.colsurfa.2014.06.019', '10.1021/acs.jpcb.1c05264', '10.1016/j.colsurfa.2014.06.019']","['10.1016/j.colsurfa.2014.06.019', '10.1016/j.ces.2022.118208']",10.1002/9781118228920,10.1021/je201107a,10.1016/j.colsurfa.2014.06.019,calculated,10.1016/j.colsurfa.2014.06.019,calculated,calculated,decyl(trimethyl)ammonium-bromide,"InChI=1S/C13H30N.BrH/c1-5-6-7-8-9-10-11-12-13-14(2,3)4;/h5-13H2,1-4H3;1H/q+1;/p-1",PLMFYJJFUUUCRZ-UHFFFAOYSA-M,279.15616206
CCCCCCCCCC[N+](C)(C)C.[Cl-],cationic,0.068,1.16749108729376,,,,,,,25,"['10.1016/0021-9797(76)90178-8', '10.1021/acs.jpcb.1c05264']",,10.1002/9781118228920,,,,,,,decyl(trimethyl)azanium-chloride,"InChI=1S/C13H30N.ClH/c1-5-6-7-8-9-10-11-12-13-14(2,3)4;/h5-13H2,1-4H3;1H/q+1;/p-1",HXWGXXDEYMNGCT-UHFFFAOYSA-M,235.20667764
CCCCCCCCCC[N+](C)(C)CC#CC[N+](C)(C)CCCCCCCCCC.[Br-].[Br-],gemini cationic,0.0013899526312133,2.85700000000002,,,,,,,25,10.1016/j.chemosphere.2011.05.031,,,,,,,,,,"InChI=1S/C28H58N2.2BrH/c1-7-9-11-13-15-17-19-21-25-29(3,4)27-23-24-28-30(5,6)26-22-20-18-16-14-12-10-8-2;;/h7-22,25-28H2,1-6H3;2*1H/q+2;;/p-2",HLDRPGICUHOYSC-UHFFFAOYSA-L,580.296674056
CCCCCCCCCC[N+](C)(C)CC(=O)COCCOCC(=O)C[N+](C)(C)CCCCCCCCCC.[Br-].[Br-],gemini cationic,0.000859,3.06600683616876,32.6,0.00000147,1.33,39.4,3.86,0.000137,25,10.1016/j.colsurfa.2011.12.014,10.1016/j.ces.2022.118208,,10.1016/j.colsurfa.2011.12.014,10.1016/j.colsurfa.2011.12.014,,10.1016/j.colsurfa.2011.12.014,10.1016/j.colsurfa.2011.12.014,,"α,ω-Bis(decyldimethylammoniomethyl)trioxyethyleneglycoldibromide","InChI=1S/C32H66N2O4.2BrH/c1-7-9-11-13-15-17-19-21-23-33(3,4)27-31(35)29-37-25-26-38-30-32(36)28-34(5,6)24-22-20-18-16-14-12-10-8-2;;/h7-30H2,1-6H3;2*1H/q+2;;/p-2",YFZWMBAPCKZSHA-UHFFFAOYSA-L,700.338932792
CCCCCCCCCC[N+](C)(C)CC(=O)OCCN(CCOC(=O)C[N+](C)(C)CCCCCCCCCC)CCOC(=O)C[N+](C)(C)CCCCCCCCCC.[Br-].[Br-].[Br-],gemini cationic,0.00173,2.7619538968712,37.9,0.00000103,1.61,34.1,3.36141217225911,0.0346862413944022,25,10.1016/j.colsurfa.2014.06.019,10.1016/j.ces.2022.118208,,10.1016/j.colsurfa.2014.06.019,10.1016/j.colsurfa.2014.06.019,,10.1016/j.colsurfa.2014.06.019,calculated,calculated,"Triethanolaminetris(dimethyldecylammonioacetate),tribromide","InChI=1S/C48H99N4O6.3BrH/c1-10-13-16-19-22-25-28-31-37-50(4,5)43-46(53)56-40-34-49(35-41-57-47(54)44-51(6,7)38-32-29-26-23-20-17-14-11-2)36-42-58-48(55)45-52(8,9)39-33-30-27-24-21-18-15-12-3;;;/h10-45H2,1-9H3;3*1H/q+3;;;/p-3",DPSBKXAHWTVLEG-UHFFFAOYSA-K,1064.511473188
CCCCCCCCCC[N+](C)(C)CC(=O)[O-],zwitterionic,0.018,1.74472749489669,37,0.00000415,0.400129895704541,39.7,,,23,10.1021/acs.jpcb.1c05264,,10.1002/9781118228920.ch3,,10.1002/9781118228920.ch5,10.1002/9781118228920.ch5,calculated,,10.1002/9781118228920.ch5,2-[decyl(dimethyl)azaniumyl]acetate,"InChI=1S/C14H29NO2/c1-4-5-6-7-8-9-10-11-12-15(2,3)13-14(16)17/h4-13H2,1-3H3",NPKLJZUIYWRNMV-UHFFFAOYSA-N,243.219829168
CCCCCCCCCC[N+](C)(C)CC(O)C(O)C[N+](C)(C)CCCCCCCCCC.[Br-].[Br-],gemini cationic,0.003698,2.43203309317685,,,,,,,25,10.1063/5.0051623,,,,,,,,,,"InChI=1S/C28H62N2O2.2BrH/c1-7-9-11-13-15-17-19-21-23-29(3,4)25-27(31)28(32)26-30(5,6)24-22-20-18-16-14-12-10-8-2;;/h27-28,31-32H,7-26H2,1-6H3;2*1H/q+2;;/p-2",HAAVOLOUAYLBRL-UHFFFAOYSA-L,616.317803424
CCCCCCCCCC[N+](C)(C)CC(O)CC(O)[N+](C)(C)CCCCCCCCCC.[Br-].[Br-],gemini cationic,0.0036999853117286,2.4318,,,,,,,25,10.1016/j.chemosphere.2011.05.031,,,,,,,,,,"InChI=1S/C28H62N2O2.2BrH/c1-7-9-11-13-15-17-19-21-23-29(3,4)26-27(31)25-28(32)30(5,6)24-22-20-18-16-14-12-10-8-2;;/h27-28,31-32H,7-26H2,1-6H3;2*1H/q+2;;/p-2",NTDPQGGCKJUENH-UHFFFAOYSA-L,616.317803424
CCCCCCCCCC[N+](C)(C)CC(O)COCCOCC(O)C[N+](C)(C)CCCCCCCCCC.[Br-].[Br-],gemini cationic,,,32.6,,,,,,,,10.1016/j.ces.2022.118208,,10.1016/j.colsurfa.2011.12.014,,,,,,,"InChI=1S/C32H70N2O4.2BrH/c1-7-9-11-13-15-17-19-21-23-33(3,4)27-31(35)29-37-25-26-38-30-32(36)28-34(5,6)24-22-20-18-16-14-12-10-8-2;;/h31-32,35-36H,7-30H2,1-6H3;2*1H/q+2;;/p-2",WYIABFLIJGQWFQ-UHFFFAOYSA-L,704.37023292
CCCCCCCCCC[N+](C)(C)CC(O)COCCOCCOCC(O)C[N+](C)(C)CCCCCCCCCC.[Br-].[Br-],gemini cationic,0.0017,2.76955107862173,47,0.000000417,3.98,25,3.22,0.0006,25,10.1016/j.colsurfa.2011.12.014,10.1016/j.ces.2022.118208,,10.1016/j.colsurfa.2011.12.014,10.1016/j.colsurfa.2011.12.014,,10.1016/j.colsurfa.2011.12.014,10.1016/j.colsurfa.2011.12.014,,"α,ω-Bis(decyldimethylammoniomethyl)tetraoxyethyleneglycoldibromide","InChI=1S/C34H74N2O5.2BrH/c1-7-9-11-13-15-17-19-21-23-35(3,4)29-33(37)31-40-27-25-39-26-28-41-32-34(38)30-36(5,6)24-22-20-18-16-14-12-10-8-2;;/h33-34,37-38H,7-32H2,1-6H3;2*1H/q+2;;/p-2",BKQQPYNIRSEVKI-UHFFFAOYSA-L,748.396447668
CCCCCCCCCC[N+](C)(C)CC(O)COCCOCCOCCOCC(O)C[N+](C)(C)CCCCCCCCCC.[Br-].[Br-],gemini cationic,0.000649,3.18775530319963,48.3,0.000000519,2.01,23.7,3.54,0.000289,25,10.1016/j.colsurfa.2011.12.014,10.1016/j.ces.2022.118208,,10.1016/j.colsurfa.2011.12.014,10.1016/j.colsurfa.2011.12.014,,10.1016/j.colsurfa.2011.12.014,10.1016/j.colsurfa.2011.12.014,,"α,ω-Bis(decyldimethylammoniomethyl)pentaoxyethyleneglycoldibromide","InChI=1S/C36H78N2O6.2BrH/c1-7-9-11-13-15-17-19-21-23-37(3,4)31-35(39)33-43-29-27-41-25-26-42-28-30-44-34-36(40)32-38(5,6)24-22-20-18-16-14-12-10-8-2;;/h35-36,39-40H,7-34H2,1-6H3;2*1H/q+2;;/p-2",NEPVCJGIQRFENK-UHFFFAOYSA-L,792.422662416
CCCCCCCCCC[N+](C)(C)CC(O)C[N+](C)(C)CCCCCCCCCC.[Cl-].[Cl-],gemini cationic,0.0032,2.49485002168009,36.5,,,35.5,2.9,0.00126,25,10.1007/BF02517994,10.1016/j.ces.2022.118208,,10.1007/BF02517994,,,,10.1007/BF02517994,,bis-decyldimethylammoniumsalt,"InChI=1S/C27H60N2O.2ClH/c1-7-9-11-13-15-17-19-21-23-28(3,4)25-27(30)26-29(5,6)24-22-20-18-16-14-12-10-8-2;;/h27,30H,7-26H2,1-6H3;2*1H/q+2;;/p-2",WQHOLQNBJWMURG-UHFFFAOYSA-L,498.4082699
CCCCCCCCCC[N+](C)(C)CCC/N=C/c1ccc(OC)c(OC)c1.[Br-],cationic,,,32.1,,,,,,,,10.1016/j.ces.2022.118208,,10.1016/j.molliq.2015.03.043,,,,,,,"InChI=1S/C24H43N2O2.BrH/c1-6-7-8-9-10-11-12-13-18-26(2,3)19-14-17-25-21-22-15-16-23(27-4)24(20-22)28-5;/h15-16,20-21H,6-14,17-19H2,1-5H3;1H/q+1;/p-1/b25-21+;",SCOHURFZKXHGHX-JMFMGIQESA-M,470.250790716
CCCCCCCCCC[N+](C)(C)CCCC(=O)[O-],zwitterionic,0.0046,2.33724216831843,,,,,,,25,10.1002/9781118228920.ch3,,,,,,,,,4-[decyl(dimethyl)azaniumyl]butanoate,"InChI=1S/C16H33NO2/c1-4-5-6-7-8-9-10-11-14-17(2,3)15-12-13-16(18)19/h4-15H2,1-3H3",MWSMCODOBWFKNT-UHFFFAOYSA-N,271.251129296
CCCCCCCCCC[N+](C)(C)CCCCCC(=O)[O-],zwitterionic,0.0026,2.58502665202918,,,,,,,25,10.1002/9781118228920.ch3,,,,,,,,,,"InChI=1S/C18H37NO2/c1-4-5-6-7-8-9-10-13-16-19(2,3)17-14-11-12-15-18(20)21/h4-17H2,1-3H3",NMQPBQYSQVJGCP-UHFFFAOYSA-N,299.282429424
CCCCCCCCCC[N+](C)(C)CCCCCCCC(=O)[O-],zwitterionic,0.0015,2.82390874094432,,,,,,,25,10.1002/9781118228920.ch3,,,,,,,,,,"InChI=1S/C20H41NO2/c1-4-5-6-7-8-9-12-15-18-21(2,3)19-16-13-10-11-14-17-20(22)23/h4-19H2,1-3H3",WOLQYCLAJJYNOF-UHFFFAOYSA-N,327.313729552
CCCCCCCCCC[N+](C)(C)CCCCCCCCCC.[Br-],cationic,0.0012,2.92081875395238,24,0.0000023,0.72,47,3.98701527952667,0.0185550130802202,25,"['10.1021/acs.jpcb.1c05264', '10.1016/j.colsurfa.2010.02.004', '10.1021/acs.jpcb.1c05264', '10.1002/9781118228920.ch3', '10.1016/j.colsurfa.2010.02.004']",10.1016/j.ces.2022.118208,10.1002/9781118228920,10.1201/9780203911518,10.1016/j.colsurfa.2010.02.004,10.1016/j.colsurfa.2010.02.004,10.1016/j.colsurfa.2010.02.004,calculated,calculated,didecyl(dimethyl)azanium-bromide,"InChI=1S/C22H48N.BrH/c1-5-7-9-11-13-15-17-19-21-23(3,4)22-20-18-16-14-12-10-8-6-2;/h5-22H2,1-4H3;1H/q+1;/p-1",UMGXUWVIJIQANV-UHFFFAOYSA-M,405.297012636
CCCCCCCCCC[N+](C)(C)CCCCCCCCCC.[Cl-],cationic,,,27.7,,,,,,,,10.1016/j.ces.2022.118208,,10.1007/s11743-015-1705-7,,,,,,,"InChI=1S/C22H48N.ClH/c1-5-7-9-11-13-15-17-19-21-23(3,4)22-20-18-16-14-12-10-8-6-2;/h5-22H2,1-4H3;1H/q+1;/p-1",RUPBZQFQVRMKDG-UHFFFAOYSA-M,361.347528216
CCCCCCCCCC[N+](C)(C)CCCCCCCCCCCC[N+](C)(C)CCCCCCCCCC.[Br-].[Br-],gemini cationic,0.0021998851090492,2.65760000000001,,,,,,,25,10.1016/j.chemosphere.2011.05.031,,,,,,,,,,"InChI=1S/C36H78N2.2BrH/c1-7-9-11-13-15-21-25-29-33-37(3,4)35-31-27-23-19-17-18-20-24-28-32-36-38(5,6)34-30-26-22-16-14-12-10-8-2;;/h7-36H2,1-6H3;2*1H/q+2;;/p-2",PRIZFLYJVITCHB-UHFFFAOYSA-L,696.453174696
CCCCCCCCCC[N+](C)(C)CCCCCCCCCC[N+](C)(C)CCCCCCCCCC.[Br-].[Br-],gemini cationic,0.0041995233466406,2.37680000000001,,,,,,,25,10.1016/j.chemosphere.2011.05.031,,,,,,,,,,"InChI=1S/C34H74N2.2BrH/c1-7-9-11-13-15-19-23-27-31-35(3,4)33-29-25-21-17-18-22-26-30-34-36(5,6)32-28-24-20-16-14-12-10-8-2;;/h7-34H2,1-6H3;2*1H/q+2;;/p-2",JWHGXJPDQPJVOF-UHFFFAOYSA-L,668.421874568
CCCCCCCCCC[N+](C)(C)CCCCCCCC[N+](C)(C)CCCCCCCCCC.[Br-].[Br-],gemini cationic,0.0075006689873606,2.1249,,,,,,,25,10.1016/j.chemosphere.2011.05.031,,,,,,,,,,"InChI=1S/C32H70N2.2BrH/c1-7-9-11-13-15-17-21-25-29-33(3,4)31-27-23-19-20-24-28-32-34(5,6)30-26-22-18-16-14-12-10-8-2;;/h7-32H2,1-6H3;2*1H/q+2;;/p-2",PPUZBTJOZWCZDG-UHFFFAOYSA-L,640.39057444
CCCCCCCCCC[N+](C)(C)CCCCCC[N+](C)(C)CCCCCCCCCC.[Br-].[Br-],gemini cationic,0.0092002578664823,2.0362,,,,,,,25,10.1016/j.chemosphere.2011.05.031,,,,,,,,,decyl-[6-[decyl(dimethyl)azaniumyl]hexyl]-dimethylazanium-dibromide,"InChI=1S/C30H66N2.2BrH/c1-7-9-11-13-15-17-19-23-27-31(3,4)29-25-21-22-26-30-32(5,6)28-24-20-18-16-14-12-10-8-2;;/h7-30H2,1-6H3;2*1H/q+2;;/p-2",OFVAMZZCDNKNCO-UHFFFAOYSA-L,612.359274312
CCCCCCCCCC[N+](C)(C)CCCCC[N+](C)(C)CCCCCCCCCC.[Br-].[Br-],gemini cationic,0.0077,2.11350927482752,39.5,0.0000013,1.28,32.5,2.67492228050995,0.0689121840063411,25,"['10.1016/j.chemosphere.2011.05.031', '10.1016/0021-9797(86)90417-0', '10.1016/0021-9797(86)90417-0']",10.1016/j.ces.2022.118208,,10.1016/0021-9797(86)90417-0,10.1016/0021-9797(86)90417-0,,,calculated,calculated,"N,N'-bis(decyldimethyl)-3-methyl-1,5-pentanediammoniumdibromide","InChI=1S/C29H64N2.2BrH/c1-7-9-11-13-15-17-19-22-26-30(3,4)28-24-21-25-29-31(5,6)27-23-20-18-16-14-12-10-8-2;;/h7-29H2,1-6H3;2*1H/q+2;;/p-2",OPJXUWGAWCDVHV-UHFFFAOYSA-L,598.343624248
CCCCCCCCCC[N+](C)(C)CCCCNC[N+](C)(C)CCCCCCCCCC.[Br-].[Br-],gemini cationic,0.0084004006526376,2.0757,,,,,,,25,10.1016/j.chemosphere.2011.05.031,,,,,,,,,,"InChI=1S/C29H65N3.2BrH/c1-7-9-11-13-15-17-19-22-26-31(3,4)27-24-21-25-30-29-32(5,6)28-23-20-18-16-14-12-10-8-2;;/h30H,7-29H2,1-6H3;2*1H/q+2;;/p-2",UEZDPLKEJXZHGG-UHFFFAOYSA-L,613.35452328
CCCCCCCCCC[N+](C)(C)CCCCO[N+](C)(C)CCCCCCCCCC.[Br-].[Br-],gemini cationic,0.0077001644435687,2.1135,,,,,,,25,10.1016/j.chemosphere.2011.05.031,,,,,,,,,,"InChI=1S/C28H62N2O.2BrH/c1-7-9-11-13-15-17-19-21-25-29(3,4)26-23-24-28-31-30(5,6)27-22-20-18-16-14-12-10-8-2;;/h7-28H2,1-6H3;2*1H/q+2;;/p-2",XTRPCYOHPUAVNX-UHFFFAOYSA-L,600.322888804
CCCCCCCCCC[N+](C)(C)CCCC[N+](C)(C)CCCCCCCCCC.[Br-].[Br-],gemini cationic,0.0086996143306526,2.0605,,,,,,,25,10.1016/j.chemosphere.2011.05.031,,,,,,,,,,"InChI=1S/C28H62N2.2BrH/c1-7-9-11-13-15-17-19-21-25-29(3,4)27-23-24-28-30(5,6)26-22-20-18-16-14-12-10-8-2;;/h7-28H2,1-6H3;2*1H/q+2;;/p-2",HKAKXBFSZZJPGZ-UHFFFAOYSA-L,584.327974184
CCCCCCCCCC[N+](C)(C)CCCC[N+](C)(C)CCCCCCCCCC.[Cl-].[Cl-],gemini cationic,,,40,,,,,,,,10.1016/j.ces.2022.118208,,10.1007/s11743-001-0179-z,,,,,,,"InChI=1S/C28H62N2.2ClH/c1-7-9-11-13-15-17-19-21-25-29(3,4)27-23-24-28-30(5,6)26-22-20-18-16-14-12-10-8-2;;/h7-28H2,1-6H3;2*1H/q+2;;/p-2",HTGZJDITPPNKBM-UHFFFAOYSA-L,496.429005344
CCCCCCCCCC[N+](C)(C)CCCN=Cc1ccccc1.[Br-],cationic,,,32.9,,,,,,,,10.1016/j.ces.2022.118208,,10.1016/j.ejpe.2017.05.006,,,,,,,"InChI=1S/C22H39N2.BrH/c1-4-5-6-7-8-9-10-14-19-24(2,3)20-15-18-23-21-22-16-12-11-13-17-22;/h11-13,16-17,21H,4-10,14-15,18-20H2,1-3H3;1H/q+1;/p-1",KCKCGGVSGFJBDG-UHFFFAOYSA-M,410.229661348
CCCCCCCCCC[N+](C)(C)CCCNC(=[N+])N(C)C.[Br-].[Br-],gemini cationic,,,33.7,,,,,,,,10.1016/j.ces.2022.118208,,10.1007/s11743-012-1417-1,,,,,,,"InChI=1S/C18H40N4.2BrH/c1-6-7-8-9-10-11-12-13-16-22(4,5)17-14-15-20-18(19)21(2)3;;/h20H,6-17H2,1-5H3;2*1H/q+2;;/p-2",FPIHPFQKFWBGGZ-UHFFFAOYSA-L,470.16197148
CCCCCCCCCC[N+](C)(C)CCC[N+](C)(C)CCCCCCCCCC.[Br-].[Br-],gemini cationic,0.0064998000968302,2.1871,,,,,,,25,10.1016/j.chemosphere.2011.05.031,,,,,,,,,,"InChI=1S/C27H60N2.2BrH/c1-7-9-11-13-15-17-19-21-24-28(3,4)26-23-27-29(5,6)25-22-20-18-16-14-12-10-8-2;;/h7-27H2,1-6H3;2*1H/q+2;;/p-2",OHQQUTGXZQNCNN-UHFFFAOYSA-L,570.31232412
CCCCCCCCCC[N+](C)(C)CCN(CCC(=O)NCCN(CCC(=O)OC)CCC(=O)OC)CCC(=O)NCCN(CCC(=O)OC)CCC(=O)OC.[Br-],cationic,,,31.7,,,,,,,,10.1016/j.ces.2022.118208,,10.5650/jos.62.213,,,,,,,"InChI=1S/C40H76N6O10.BrH/c1-8-9-10-11-12-13-14-15-33-46(2,3)34-32-45(24-16-35(47)41-22-30-43(26-18-37(49)53-4)27-19-38(50)54-5)25-17-36(48)42-23-31-44(28-20-39(51)55-6)29-21-40(52)56-7;/h8-34H2,1-7H3,(H-,41,42,47,48);1H",ZQDLALDQCSXKCQ-UHFFFAOYSA-N,880.488454764
CCCCCCCCCC[N+](C)(C)CCN(CCC(=O)OC)CCC(=O)OC.[Br-],cationic,,,27.1,,,,,,,,10.1016/j.ces.2022.118208,,10.5650/jos.62.213,,,,,,,"InChI=1S/C22H45N2O4.BrH/c1-6-7-8-9-10-11-12-13-19-24(2,3)20-18-23(16-14-21(25)27-4)17-15-22(26)28-5;/h6-20H2,1-5H3;1H/q+1;/p-1",ZTBGUYCJZPKYJW-UHFFFAOYSA-M,480.25627002
CCCCCCCCCC[N+](C)(C)CCN(CC[N+](C)(C)CCCCCCCCCC)CC[N+](C)(C)CCCCCCCCCC.[Br-].[Br-].[Br-],gemini cationic,0.00117,2.93181413825384,33.4,0.000000883,1.88,38.6,3.85423541644645,0.0211897984894717,25,10.1021/la301220y,10.1016/j.ces.2022.118208,,10.1021/la301220y,10.1021/la301220y,,10.1021/la301220y,calculated,calculated,"Tris(N-decyl-N,N-dimethyl-2-ammoniumethyl)-amineBromide","InChI=1S/C42H93N4.3BrH/c1-10-13-16-19-22-25-28-31-37-44(4,5)40-34-43(35-41-45(6,7)38-32-29-26-23-20-17-14-11-2)36-42-46(8,9)39-33-30-27-24-21-18-15-12-3;;;/h10-42H2,1-9H3;3*1H/q+3;;;/p-3",CPMKLJYSKDMZQQ-UHFFFAOYSA-K,890.495035276
CCCCCCCCCC[N+](C)(C)CCOC(=O)CCC(=O)OCC[N+](C)(C)CCCCCCCCCC.[Cl-].[Cl-],gemini cationic,,,39.6,,,,,,,,10.1016/j.ces.2022.118208,,10.1016/j.molliq.2017.01.056,,,,,,,"InChI=1S/C32H66N2O4.2ClH/c1-7-9-11-13-15-17-19-21-25-33(3,4)27-29-37-31(35)23-24-32(36)38-30-28-34(5,6)26-22-20-18-16-14-12-10-8-2;;/h7-30H2,1-6H3;2*1H/q+2;;/p-2",YNVQMZGFLPAPKG-UHFFFAOYSA-L,612.439963952
CCCCCCCCCC[N+](C)(C)CCOC(=O)CCCCCCC(=O)OCC[N+](C)(C)CCCCCCCCCC.[Cl-].[Cl-],gemini cationic,,,32,,,,,,,,10.1016/j.ces.2022.118208,,10.1016/j.molliq.2017.01.056,,,,,,,"InChI=1S/C36H74N2O4.2ClH/c1-7-9-11-13-15-17-21-25-29-37(3,4)31-33-41-35(39)27-23-19-20-24-28-36(40)42-34-32-38(5,6)30-26-22-18-16-14-12-10-8-2;;/h7-34H2,1-6H3;2*1H/q+2;;/p-2",SJHQZHWWNNOLFG-UHFFFAOYSA-L,668.502564208
CCCCCCCCCC[N+](C)(C)CCOCC[N+](C)(C)CCCCCCCCCC.[Br-].[Br-],gemini cationic,0.00659,2.18111458540599,40.8,0.00000123,1.35,31.2,2.71276813745388,0.0663528783751979,25,"['10.1016/j.crci.2019.04.002', '10.1016/0021-9797(86)90417-0', '10.1016/0021-9797(86)90417-0']",10.1016/j.ces.2022.118208,,10.1016/0021-9797(86)90417-0,10.1016/0021-9797(86)90417-0,,,calculated,calculated,"N,N'-bis(decyldimethyl)-3-O-1,5-pentanediammoniumdibromide","InChI=1S/C28H62N2O.2BrH/c1-7-9-11-13-15-17-19-21-23-29(3,4)25-27-31-28-26-30(5,6)24-22-20-18-16-14-12-10-8-2;;/h7-28H2,1-6H3;2*1H/q+2;;/p-2",QFKRPPJCUCNUAD-UHFFFAOYSA-L,600.322888804
CCCCCCCCCC[N+](C)(C)CCOP(=O)([O-])OCCCCCCCC,gemini zwitterionic,0.0001100018527506,3.95860000000009,,,,,,,25,10.1016/j.chemosphere.2011.05.031,,,,,,,,,,"InChI=1S/C22H48NO4P/c1-5-7-9-11-13-14-15-17-19-23(3,4)20-22-27-28(24,25)26-21-18-16-12-10-8-6-2/h5-22H2,1-4H3",YYUCXXGQJKLFHP-UHFFFAOYSA-N,421.332095646
CCCCCCCCCC[N+](C)(C)CCOc1ccc(C=NNC(=O)C(=O)NN=Cc2ccc(OCC[N+](C)(C)CCCCCCCCCC)cc2)cc1.[Cl-].[Cl-],gemini cationic,,,41.4,,,,,,,,10.1016/j.ces.2022.118208,,10.1080/01932691.2021.1929289,,,,,,,"InChI=1S/C44H72N6O4.2ClH/c1-7-9-11-13-15-17-19-21-31-49(3,4)33-35-53-41-27-23-39(24-28-41)37-45-47-43(51)44(52)48-46-38-40-25-29-42(30-26-40)54-36-34-50(5,6)32-22-20-18-16-14-12-10-8-2;;/h23-30,37-38H,7-22,31-36H2,1-6H3;2*1H",UANQQVNQFYPKJB-UHFFFAOYSA-N,820.514860208
CCCCCCCCCC[N+](C)(C)CCSCC[N+](C)(C)CCCCCCCCCC.[Br-].[Br-],gemini cationic,0.0062001186420872,2.2076,35,0.00000195,0.85,37,2.71661445848541,0.0660981540933183,25,"['10.1016/j.chemosphere.2011.05.031', '10.1016/0021-9797(86)90417-0', '10.1016/0021-9797(86)90417-0']",10.1016/j.ces.2022.118208,,10.1016/0021-9797(86)90417-0,10.1016/0021-9797(86)90417-0,,,calculated,calculated,"N,N'-bis(decyldimethyl)-3-S-1,5-pentanediammoniumdibromide","InChI=1S/C28H62N2S.2BrH/c1-7-9-11-13-15-17-19-21-23-29(3,4)25-27-31-28-26-30(5,6)24-22-20-18-16-14-12-10-8-2;;/h7-28H2,1-6H3;2*1H/q+2;;/p-2",JEZSSGCFGCIZBZ-UHFFFAOYSA-L,616.300045184
CCCCCCCCCC[N+](C)(C)CC[N+](C)(C)CCCCCCCCCC.[Br-].[Br-],gemini cationic,0.0062001186420872,2.2076,32,,,39.97,,,25,10.1016/j.chemosphere.2011.05.031,10.1016/j.ces.2022.118208,,10.1016/0927-7757(95)03383-1,,calculated,,,,,"InChI=1S/C26H58N2.2BrH/c1-7-9-11-13-15-17-19-21-23-27(3,4)25-26-28(5,6)24-22-20-18-16-14-12-10-8-2;;/h7-26H2,1-6H3;2*1H/q+2;;/p-2",PHENWYHGWCTCFW-UHFFFAOYSA-L,556.296674056