SMILES,Surfactant_Type,CMC,pCMC,AW_ST_CMC,Gamma_max,Area_min,Pi_CMC,pC20,C20,Temp_Celsius,Ref_CMC,Ref_AW_ST_CMC,SubRef_CMC,SubRef_AW_ST_CMC,Ref_Gamma_max,Ref_Pi_CMC,Ref_Area_min,Ref_pC20,Ref_C20,IUPAC_name,InChI,InChIKey,Molecular_Weight
CCCCCCCCCC[N+](C)(C)CC[N+](C)(CCCCCCCCCC)CC[N+](C)(C)CCCCCCCCCC.[Br-].[Br-].[Br-],gemini cationic,0.00095,3.02227639471115,25.8,0.00000138,1.21,46.2,3.85365582834349,0.0212020834043317,25,10.1016/j.jcis.2003.12.021,10.1016/j.ces.2022.118208,,10.1016/j.jcis.2003.12.021,10.1016/j.jcis.2003.12.021,,10.1016/j.jcis.2003.12.021,calculated,calculated,"1,2,3-tris(decacyldimethylammonio)ethanetribromide","InChI=1S/C39H86N3.3BrH/c1-9-12-15-18-21-24-27-30-33-40(4,5)36-38-42(8,35-32-29-26-23-20-17-14-11-3)39-37-41(6,7)34-31-28-25-22-19-16-13-10-2;;;/h9-39H2,1-8H3;3*1H/q+3;;;/p-3",DEJZQQOLWHVEEG-UHFFFAOYSA-K,833.437186052
CCCCCCCCCC[N+](C)(C)Cc1ccccc1.[Cl-],cationic,0.039,1.4089353929735,,,,,,,25,10.1021/acs.jpcb.1c05264,,10.1002/9781118228920,,,,,,,benzyl-decyl-dimethylazanium-chloride,"InChI=1S/C19H34N.ClH/c1-4-5-6-7-8-9-10-14-17-20(2,3)18-19-15-12-11-13-16-19;/h11-13,15-16H,4-10,14,17-18H2,1-3H3;1H/q+1;/p-1",TTZLKXKJIMOHHG-UHFFFAOYSA-M,311.237977768
CCCCCCCCCC[N+](C)(CCO)CCCNC(=O)C(O)C(O)C(O)C(O)CO.[Br-],cationic,0.00067,3.17392519729917,28.2,0.0000024,0.69,43.8,4.1,0.000087,25,10.1016/j.colsurfa.2014.05.042,10.1016/j.ces.2022.118208,,10.1016/j.colsurfa.2014.05.042,10.1016/j.colsurfa.2014.05.042,,10.1016/j.colsurfa.2014.05.042,10.1016/j.colsurfa.2014.05.042,,N[3-(gluconamide)-propyl]-N-decylammoniumbromide,"InChI=1S/C22H46N2O7.BrH/c1-3-4-5-6-7-8-9-10-13-24(2,15-16-25)14-11-12-23-22(31)21(30)20(29)19(28)18(27)17-26;/h18-21,25-30H,3-17H2,1-2H3;1H",HRLAPPHIDKEURV-UHFFFAOYSA-N,530.256663944
CCCCCCCCCC[N+](C)CCO.[Br-],cationic,0.0152,1.81815641205523,27.5,0.000002,1.05,45.9,2.71,0.00195,20,10.1007/s11743-010-1180-0,10.1016/j.ces.2022.118208,,10.1007/s11743-010-1180-0,10.1007/s11743-010-1180-0,10.1007/s11743-010-1180-0,10.1007/s11743-010-1180-0,10.1007/s11743-010-1180-0,,Decylmethylethylolammoniumbromide,"InChI=1S/C13H29NO.BrH/c1-3-4-5-6-7-8-9-10-11-14(2)12-13-15;/h15H,3-13H2,1-2H3;1H/q+1;/p-1",AUEUZBKXAKGMHD-UHFFFAOYSA-M,294.143251648
CCCCCCCCCC[N+](CC)(CC)CC(=O)NCCNC(=O)C[N+](CC)(CC)CCCCCCCCCC.[Cl-].[Cl-],gemini cationic,0.00672,2.17263072694617,45.6,0.0000009,1.85,26.4,2.6,0.00252,25,10.1021/la3011212,10.1016/j.ces.2022.118208,,10.1021/la3011212,10.1021/la3011212,,10.1021/la3011212,,10.1021/la3011212,"N,N′-((Ethane-1,2-diyl)bis(azanediyl))bis(2-oxoethane-2,1-diyl))-bis(N,N-diethylde-can-1-aminium)Dichloride","InChI=1S/C34H70N4O2.2ClH/c1-7-13-15-17-19-21-23-25-29-37(9-3,10-4)31-33(39)35-27-28-36-34(40)32-38(11-5,12-6)30-26-24-22-20-18-16-14-8-2;;/h7-32H2,1-6H3;2*1H",NIBANYDDAFUYJU-UHFFFAOYSA-N,638.503232904
CCCCCCCCCC[N+](CCC)(CCC)CCCC[N+](CCC)(CCC)CCCCCCCCCC.[Br-].[Br-],gemini cationic,0.00404,2.3936186348894,38.5,0.00000108,1.53,33.47,3.12345554227656,0.0440048447893493,25,10.1016/j.colsurfa.2015.02.005,10.1016/j.ces.2022.118208,,10.1016/j.colsurfa.2015.02.005,10.1016/j.colsurfa.2015.02.005,calculated,10.1016/j.colsurfa.2015.02.005,calculated,calculated,,"InChI=1S/C36H78N2.2BrH/c1-7-13-15-17-19-21-23-25-33-37(29-9-3,30-10-4)35-27-28-36-38(31-11-5,32-12-6)34-26-24-22-20-18-16-14-8-2;;/h7-36H2,1-6H3;2*1H/q+2;;/p-2",QVZPQUZPEDSGKP-UHFFFAOYSA-L,696.453174696
CCCCCCCCCC[N+](CCCCCC[N+](CCCCCCCCCC)(CC(C)O)CC(C)O)(CC(C)O)CC(C)O.[Br-].[Br-],gemini cationic,0.00056,3.2518119729938,34.1,0.00000162,1.02,37.9,3.92,0.00012,25,10.1002/jsde.12506,10.1016/j.ces.2022.118208,,10.1002/jsde.12506,10.1002/jsde.12506,10.1002/jsde.12506,10.1002/jsde.12506,10.1002/jsde.12506,,"hexanediyl-1,6-bis[(diisopropylol)decylammonium]dibromide","InChI=1S/C38H82N2O4.2BrH/c1-7-9-11-13-15-17-19-23-27-39(31-35(3)41,32-36(4)42)29-25-21-22-26-30-40(33-37(5)43,34-38(6)44)28-24-20-18-16-14-12-10-8-2;;/h35-38,41-44H,7-34H2,1-6H3;2*1H/q+2;;/p-2",XQFVELCGBMXGLW-UHFFFAOYSA-L,788.464133304
CCCCCCCCCC[N+](CCCCCC[N+](CCCCCCCCCC)CC(C)O)CC(C)O.[Br-].[Br-],gemini cationic,0.000599,3.22257317761069,38,0.00000203,0.82,34,3.55,0.000282,25,10.1002/jsde.12506,10.1016/j.ces.2022.118208,,10.1002/jsde.12506,10.1002/jsde.12506,10.1002/jsde.12506,10.1002/jsde.12506,10.1002/jsde.12506,,"hexanediyl-1,6-bis[(isopropylol)decylammonium]dibromide","InChI=1S/C32H68N2O2.2BrH/c1-5-7-9-11-13-15-17-21-25-33(29-31(3)35)27-23-19-20-24-28-34(30-32(4)36)26-22-18-16-14-12-10-8-6-2;;/h31-32,35-36H,5-30H2,1-4H3;2*1H/q+2;;/p-2",XMGWXROWZPHZRR-UHFFFAOYSA-L,670.364753616
CCCCCCCCCC[N+](CCO)(CCO)CCO.[Br-],cationic,0.0165,1.78251605578609,28.9,0.00000168,1.24,42.4,2.79,0.00162,20,10.1007/s11743-010-1180-0,10.1016/j.ces.2022.118208,,10.1007/s11743-010-1180-0,10.1007/s11743-010-1180-0,10.1007/s11743-010-1180-0,10.1007/s11743-010-1180-0,10.1007/s11743-010-1180-0,,Decyltriethylolammoniumbromide,"InChI=1S/C16H36NO3.BrH/c1-2-3-4-5-6-7-8-9-10-17(11-14-18,12-15-19)13-16-20;/h18-20H,2-16H2,1H3;1H/q+1;/p-1",NNHZVSVESAXJMW-UHFFFAOYSA-M,369.187856112
CCCCCCCCCC[N+](CCO)CCO.[Br-],cationic,0.017,1.76955107862173,29,0.00000113,1.23,43.3,2.67,0.00214,20,10.1007/s11743-010-1180-0,10.1016/j.ces.2022.118208,,10.1007/s11743-010-1180-0,10.1007/s11743-010-1180-0,10.1007/s11743-010-1180-0,10.1007/s11743-010-1180-0,10.1007/s11743-010-1180-0,,Decyldiethylolammoniumbromide,"InChI=1S/C14H31NO2.BrH/c1-2-3-4-5-6-7-8-9-10-15(11-13-16)12-14-17;/h16-17H,2-14H2,1H3;1H/q+1;/p-1",KUNGSYQTXQLRFX-UHFFFAOYSA-M,324.153816332
CCCCCCCCCC[N+]1(CC#CC[N+]2(CCCCCCCCCC)CCCC2)CCCC1.[Br-].[Br-],gemini cationic,0.005309,2.27498727465884,,,,,,,25,10.1063/5.0051623,,,,,,,,,,"InChI=1S/C32H62N2.2BrH/c1-3-5-7-9-11-13-15-17-25-33(27-19-20-28-33)31-23-24-32-34(29-21-22-30-34)26-18-16-14-12-10-8-6-4-2;;/h3-22,25-32H2,1-2H3;2*1H/q+2;;/p-2",QHRCOAWUQMSLKQ-UHFFFAOYSA-L,632.327974184
CCCCCCCCCC[N+]1(CC#CC[N+]2(CCCCCCCCCC)CCCCC2)CCCCC1.[Br-].[Br-],gemini cationic,0.005957,2.22497239990116,,,,,,,25,10.1063/5.0051623,,,,,,,,,,"InChI=1S/C34H66N2.2BrH/c1-3-5-7-9-11-13-15-19-27-35(29-21-17-22-30-35)33-25-26-34-36(31-23-18-24-32-36)28-20-16-14-12-10-8-6-4-2;;/h3-24,27-34H2,1-2H3;2*1H/q+2;;/p-2",XIEZOKXREFCDLQ-UHFFFAOYSA-L,660.359274312
CCCCCCCCCC[N+]1(CCCC[N+]2(CCCCCCCCCC)CCCC2)CCCC1.[Br-].[Br-],gemini cationic,0.005754,2.24003014244569,39.1,,,32.87,,,25,10.1063/5.0051623,10.1016/j.ces.2022.118208,,10.1016/j.jcis.2011.12.025,,calculated,,,,,"InChI=1S/C32H66N2.2BrH/c1-3-5-7-9-11-13-15-17-25-33(27-19-20-28-33)31-23-24-32-34(29-21-22-30-34)26-18-16-14-12-10-8-6-4-2;;/h3-32H2,1-2H3;2*1H/q+2;;/p-2",ZQAZYUOTHRWWLS-UHFFFAOYSA-L,636.359274312
CCCCCCCCCC[N+]1(Cc2ccc(-c3ccc(C[N+]4(CCCCCCCCCC)CCOCC4)cc3)cc2)CCOCC1.[Cl-].[Cl-],gemini cationic,0.002859,2.54378584464201,36,0.00000132,1.26,36,3.37,0.000427,25,10.1016/j.molliq.2021.115781,10.1016/j.ces.2022.118208,,10.1016/j.molliq.2021.115781,10.1016/j.molliq.2021.115781,,10.1016/j.molliq.2021.115781,10.1016/j.molliq.2021.115781,,morpholinium-didecyl-biphenylene,"InChI=1S/C42H70N2O2.2ClH/c1-3-5-7-9-11-13-15-17-27-43(29-33-45-34-30-43)37-39-19-23-41(24-20-39)42-25-21-40(22-26-42)38-44(31-35-46-36-32-44)28-18-16-14-12-10-8-6-4-2;;/h19-26H,3-18,27-38H2,1-2H3;2*1H/q+2;;/p-2",OYKWOUAHWGPDPI-UHFFFAOYSA-L,704.48143484
CCCCCCCCCC[N+]1(Cc2ccc(C[N+]3(CCCCCCCCCC)CCOCC3)cc2)CCOCC1.[Cl-].[Cl-],gemini cationic,0.006487,2.18795610206977,39.9,0.00000163,1.02,32.1,2.56,0.00275,25,10.1016/j.molliq.2021.115781,10.1016/j.ces.2022.118208,,10.1016/j.molliq.2021.115781,10.1016/j.molliq.2021.115781,10.1016/j.molliq.2021.115781,10.1016/j.molliq.2021.115781,10.1016/j.molliq.2021.115781,10.1016/j.molliq.2021.115781,morpholinium-bisdecyl-phenylene,"InChI=1S/C36H66N2O2.2ClH/c1-3-5-7-9-11-13-15-17-23-37(25-29-39-30-26-37)33-35-19-21-36(22-20-35)34-38(27-31-40-32-28-38)24-18-16-14-12-10-8-6-4-2;;/h19-22H,3-18,23-34H2,1-2H3;2*1H/q+2;;/p-2",HHSZVZAXYPOYFE-UHFFFAOYSA-L,628.450134712
CCCCCCCCCC[N+]1CCCCC1.[Cl-],cationic,0.065,1.18708664335714,,,,,,,25,10.1016/0021-9797(76)90178-8,,,,,,,,,,"InChI=1S/C15H31N.ClH/c1-2-3-4-5-6-7-8-10-13-16-14-11-9-12-15-16;/h2-15H2,1H3;1H/q+1;/p-1",FKJWIFBDDSLURE-UHFFFAOYSA-M,260.214502672
CCCCCCCCCC[N+]CC(O)COCC(C)(COCC(O)C[N+]CCCCCCCCCC)COCC(O)C[N+]CCCCCCCCCC.[Cl-].[Cl-].[Cl-],gemini cationic,0.000622,3.20620961530918,34.8,0.0000028,0.59,37.2,4.21,0.000061,25,10.1007/s11743-007-1052-4,10.1016/j.ces.2022.118208,,10.1007/s11743-007-1052-4,10.1007/s11743-007-1052-4,10.1007/s11743-007-1052-4,,10.1007/s11743-007-1052-4,,"1,1,1-Tris[2-hydroxy-3-(octyldimethylammonio)-propoxymethyl]ethaneTrichloride","InChI=1S/C44H90N3O6.3ClH/c1-5-8-11-14-17-20-23-26-29-45-32-41(48)35-51-38-44(4,39-52-36-42(49)33-46-30-27-24-21-18-15-12-9-6-2)40-53-37-43(50)34-47-31-28-25-22-19-16-13-10-7-3;;;/h41-43,48-50H,5-40H2,1-4H3;3*1H/q+3;;;/p-3",DFUWPARXSBVDMT-UHFFFAOYSA-K,861.58952064
CCCCCCCCCC[N+]CCO.[Br-],cationic,0.037,1.43179827593301,33,0.00000131,1.27,39.3,2.6,0.00251,20,10.1007/s11743-010-1180-0,10.1016/j.ces.2022.118208,,10.1007/s11743-010-1180-0,10.1007/s11743-010-1180-0,10.1007/s11743-010-1180-0,10.1007/s11743-010-1180-0,10.1007/s11743-010-1180-0,,Decylmonoethylolammoniumbromide,"InChI=1S/C12H26NO.BrH/c1-2-3-4-5-6-7-8-9-10-13-11-12-14;/h14H,2-12H2,1H3;1H/q+1;/p-1",DVBDYTKAFGPWLF-UHFFFAOYSA-M,279.119776552
CCCCCCCCCC[n+]1ccc(C(=O)NCCCCCCNC(=O)c2cc[n+](CCCCCCCCCC)cc2)cc1.[Br-].[Br-],gemini cationic,0.00284,2.54668165995296,47.3,0.0000014,1.19,24.7,4.7,0.00002,25,10.1016/j.cclet.2011.01.030,,,,10.1016/j.cclet.2011.01.030,,10.1016/j.cclet.2011.01.030,10.1016/j.cclet.2011.01.030,,1-decyl-N-[6-[(1-decylpyridin-1-ium-4-carbonyl)amino]hexyl]pyridin-1-ium-4-carboxamide-dibromide,"InChI=1S/C38H62N4O2.2BrH/c1-3-5-7-9-11-13-17-21-29-41-31-23-35(24-32-41)37(43)39-27-19-15-16-20-28-40-38(44)36-25-33-42(34-26-36)30-22-18-14-12-10-8-6-4-2;;/h23-26,31-34H,3-22,27-30H2,1-2H3;2*1H",CNJSEKJABVECCJ-UHFFFAOYSA-N,766.339601488
CCCCCCCCCC[n+]1cccc(NC(=O)Nc2ccc[n+](CCCCCCCCCC)c2)c1.[Br-].[Br-],gemini cationic,0.000846,3.07262963696098,33.5,,,38.47,,,25,10.1007/s11743-016-1850-7,10.1007/s11743-016-1850-7,10.1007/s11743-016-1850-7,,,calculated,10.1007/s11743-016-1850-7,10.1007/s11743-016-1850-7,10.1007/s11743-016-1850-7,,"InChI=1S/C31H51N4O.2BrH/c1-3-5-7-9-11-13-15-17-23-34-25-19-21-29(27-34)32-31(36)33-30-22-20-26-35(28-30)24-18-16-14-12-10-8-6-4-2;;/h19-22,25-28H,3-18,23-24H2,1-2H3,(H-,32,33,36);2*1H/q+1;;/p-1",UKLVPUAEEMJKKQ-UHFFFAOYSA-M,654.250786484
CCCCCCCCCC[n+]1ccccc1.[Br-],cationic,0.044,1.35654732351381,40.1,0.00000201,0.826138839389974,31.7,1.96,0.0111,25,10.1021/acs.jpcb.1c05264,10.1016/j.ces.2022.118208,10.1002/9781118228920,10.1002/0471670561,10.1002/9781118228920.ch5,10.1002/9781118228920.ch5,calculated,,,1-decylpyridin-1-ium-bromide,"InChI=1S/C15H26N.BrH/c1-2-3-4-5-6-7-8-10-13-16-14-11-9-12-15-16;/h9,11-12,14-15H,2-8,10,13H2,1H3;1H/q+1;/p-1",SPFVNQBOHYXSMM-UHFFFAOYSA-M,299.124861932
CCCCCCCCCCc1cc[nH+]cc1.[Br-],cationic,0.0044,2.35654732351381,,,,,,,25,10.1002/9781118228920.ch3,,,,,,,,,4-decylpyridin-1-ium-bromide,"InChI=1S/C15H25N.BrH/c1-2-3-4-5-6-7-8-9-10-15-11-13-16-14-12-15;/h11-14H,2-10H2,1H3;1H",AJLCDAKBKDJKEM-UHFFFAOYSA-N,299.124861932
CCCCCCCCCCc1ccc(C[C@H](Nc2ccc(S(=O)(=O)[O-])cc2)C(=O)O)cc1.[Na+],anionic,0.0003304,3.48095996135166,,,,,,,25,10.1021/ci600462d,,,,,,,,,,"InChI=1S/C25H35NO5S.Na/c1-2-3-4-5-6-7-8-9-10-20-11-13-21(14-12-20)19-24(25(27)28)26-22-15-17-23(18-16-22)32(29,30)31;/h11-18,24,26H,2-10,19H2,1H3,(H,27,28)(H,29,30,31);/q;+1/p-1/t24-;/m0./s1",NGJDTNPIVOYSOO-JIDHJSLPSA-M,483.205538468
CCCCCCCCCCc1ccc(S(=O)(=O)[O-])cc1.[Na+],anionic,0.003097,2.50905879464321,,,,,,,25,10.1021/ci600462d,,10.1016/j.theochem.2004.08.039,,,,,,,sodium-4-decylbenzenesulfonate,"InChI=1S/C16H26O3S.Na/c1-2-3-4-5-6-7-8-9-10-15-11-13-16(14-12-15)20(17,18)19;/h11-14H,2-10H2,1H3,(H,17,18,19);/q;+1/p-1",RLJSXMVTLMHXJS-UHFFFAOYSA-M,320.14220994
CCCCCCCCCCc1cccc[n+]1CCCCCC[n+]1ccccc1CCCCCCCCCC.[Br-].[Br-],gemini cationic,0.002158,2.66594855965311,,,,,,,25,10.1063/5.0051623,,,,,,,,,,"InChI=1S/C36H62N2.2BrH/c1-3-5-7-9-11-13-15-19-27-35-29-21-25-33-37(35)31-23-17-18-24-32-38-34-26-22-30-36(38)28-20-16-14-12-10-8-6-4-2;;/h21-22,25-26,29-30,33-34H,3-20,23-24,27-28,31-32H2,1-2H3;2*1H/q+2;;/p-2",KKEHJYWRAVKYMT-UHFFFAOYSA-L,680.327974184
CCCCCCCCCCc1cccc[n+]1CCCC[n+]1ccccc1CCCCCCCCCC.[Br-].[Br-],gemini cationic,0.01,2,,,,,,,25,10.1063/5.0051623,,,,,,,,,,"InChI=1S/C34H58N2.2BrH/c1-3-5-7-9-11-13-15-17-25-33-27-19-21-29-35(33)31-23-24-32-36-30-22-20-28-34(36)26-18-16-14-12-10-8-6-4-2;;/h19-22,27-30H,3-18,23-26,31-32H2,1-2H3;2*1H/q+2;;/p-2",CTCLGUXNROHEKA-UHFFFAOYSA-L,652.296674056
CCCCCCCCCCn1cc[n+](C)c1.F[B-](F)(F)F,cationic,0.0092,2.03621217265445,38.2,0.00000216,0.767,38.2,2.74,0.0645703468931685,25,10.1021/la0633029,10.1016/j.ces.2022.118208,,10.1021/la0633029,10.1021/la0633029,10.1021/la0633029,10.1021/la0633029,10.1021/la0633029,calculated,1-decyl-3-methylimidazol-3-ium-tetrafluoroborate,"InChI=1S/C14H27N2.BF4/c1-3-4-5-6-7-8-9-10-11-16-13-12-15(2)14-16;2-1(3,4)5/h12-14H,3-11H2,1-2H3;/q+1;-1",QGUMDWFYJYXDTH-UHFFFAOYSA-N,310.220342144
CCCCCCCCCCn1cc[n+](C)c1.[Br-],cationic,0.0109,1.96257350205938,39.7,0.00000172,0.967,33.3,2.15,0.116484157773497,25,10.1021/la0633029,10.1016/j.ces.2022.118208,,10.1021/la0633029,10.1021/la0633029,10.1021/la0633029,10.1021/la0633029,10.1021/la0633029,calculated,1-decyl-3-methylimidazolium,"InChI=1S/C14H27N2.BrH/c1-3-4-5-6-7-8-9-10-11-16-13-12-15(2)14-16;/h12-14H,3-11H2,1-2H3;1H/q+1;/p-1",HOISBTKPPVRFDS-UHFFFAOYSA-M,302.135760964
CCCCCCCCCCn1cc[n+](CC(O)C[n+]2ccn(CCCCCCCCCC)c2)c1.[Cl-].[Cl-],gemini cationic,0.002529,2.5970511706556,,,,,,,25,10.1063/5.0051623,,10.1002/9781119075691.ch43,,,,,,,,"InChI=1S/C29H54N4O.2ClH/c1-3-5-7-9-11-13-15-17-19-30-21-23-32(27-30)25-29(34)26-33-24-22-31(28-33)20-18-16-14-12-10-8-6-4-2;;/h21-24,27-29,34H,3-20,25-26H2,1-2H3;2*1H/q+2;;/p-2",UEOFNKCGPYFBEF-UHFFFAOYSA-L,544.367467708
CCCCCCCCCCn1cc[n+](CCCC[n+]2ccn(CCCCCCCCCC)c2)c1.[Br-].[Br-],gemini cationic,0.00507,2.29499204066666,,,,,,,25,10.1063/5.0051623,,,,,,,,,1-decyl-3-[4-(3-decylimidazol-3-ium-1-yl)butyl]imidazol-1-ium-dibromide,"InChI=1S/C30H56N4.2BrH/c1-3-5-7-9-11-13-15-17-21-31-25-27-33(29-31)23-19-20-24-34-28-26-32(30-34)22-18-16-14-12-10-8-6-4-2;;/h25-30H,3-24H2,1-2H3;2*1H/q+2;;/p-2",IMHFKDIOLOOESJ-UHFFFAOYSA-L,630.287171992
CCCCCCCCCCn1cc[n+](CCC[n+]2ccn(CCCCCCCCCC)c2)c1.[Br-].[Br-],gemini cationic,0.003373,2.4719836588108,,,,,,,25,10.1063/5.0051623,,,,,,,,,,"InChI=1S/C29H54N4.2BrH/c1-3-5-7-9-11-13-15-17-20-30-24-26-32(28-30)22-19-23-33-27-25-31(29-33)21-18-16-14-12-10-8-6-4-2;;/h24-29H,3-23H2,1-2H3;2*1H/q+2;;/p-2",LEBLTZBXQWMRCZ-UHFFFAOYSA-L,616.271521928
CCCCCCCCCCn1cc[n+](COCCCCCCOC[n+]2ccn(CCCCCCCCCC)c2)c1.[Cl-].[Cl-],gemini cationic,0.0008511380382023,3.07000000000004,32.2,0.00000215,0.83,39.8,3.6077030982797,0.0271140537141138,25,10.1111/cbdd.12236,10.1111/cbdd.12236,10.1111/cbdd.12236,,10.1111/cbdd.12236,10.1111/cbdd.12236,10.1111/cbdd.12236,calculated,calculated,1-decyl-3-[6-[(3-decylimidazol-1-ium-1-yl)methoxy]hexoxymethyl]imidazol-3-ium-dichloride,"InChI=1S/C34H64N4O2.2ClH/c1-3-5-7-9-11-13-15-19-23-35-25-27-37(31-35)33-39-29-21-17-18-22-30-40-34-38-28-26-36(32-38)24-20-16-14-12-10-8-6-4-2;;/h25-28,31-32H,3-24,29-30,33-34H2,1-2H3;2*1H/q+2;;/p-2",OIPSGFIZJRPUTR-UHFFFAOYSA-L,630.440632648
CCCCCCCCCCn1cc[n+](COCCCCCOC[n+]2ccn(CCCCCCCCCC)c2)c1.[Cl-].[Cl-],gemini cationic,0.0008511380382023,3.07000000000004,41.9,0.00000232,0.76,30.1,3.32418457809005,0.0360018634959242,25,10.1111/cbdd.12236,10.1111/cbdd.12236,10.1111/cbdd.12236,,10.1111/cbdd.12236,10.1111/cbdd.12236,10.1111/cbdd.12236,calculated,calculated,1-decyl-3-[5-[(3-decylimidazol-1-ium-1-yl)methoxy]pentoxymethyl]imidazol-3-ium-dichloride,"InChI=1S/C33H62N4O2.2ClH/c1-3-5-7-9-11-13-15-18-22-34-24-26-36(30-34)32-38-28-20-17-21-29-39-33-37-27-25-35(31-37)23-19-16-14-12-10-8-6-4-2;;/h24-27,30-31H,3-23,28-29,32-33H2,1-2H3;2*1H/q+2;;/p-2",QLZQLJNPQNAEFW-UHFFFAOYSA-L,616.424982584
CCCCCCCCCCn1cc[n+](COCCCCOC[n+]2ccn(CCCCCCCCCC)c2)c1.[Cl-].[Cl-],gemini cationic,0.001,3,43,0.00000235,0.74,28.97,3.22360960566756,0.0398110962352898,25,10.1111/cbdd.12236,10.1111/cbdd.12236,10.1002/9781119075691.ch43,,10.1111/cbdd.12236,calculated,10.1111/cbdd.12236,calculated,calculated,1-decyl-3-[4-[(3-decylimidazol-1-ium-1-yl)methoxy]butoxymethyl]imidazol-3-ium-dichloride,"InChI=1S/C32H60N4O2.2ClH/c1-3-5-7-9-11-13-15-17-21-33-23-25-35(29-33)31-37-27-19-20-28-38-32-36-26-24-34(30-36)22-18-16-14-12-10-8-6-4-2;;/h23-26,29-30H,3-22,27-28,31-32H2,1-2H3;2*1H/q+2;;/p-2",BCHJIIVURPYXRL-UHFFFAOYSA-L,602.40933252
CCCCCCCCCCn1cc[n+](COCCCOC[n+]2ccn(CCCCCCCCCC)c2)c1.[Cl-].[Cl-],gemini cationic,0.0011220184543019,2.95000000000002,44.2,0.00000238,0.72,27.8,3.14135219756708,0.0432243105600789,25,10.1111/cbdd.12236,10.1111/cbdd.12236,10.1111/cbdd.12236,,10.1111/cbdd.12236,10.1111/cbdd.12236,10.1111/cbdd.12236,calculated,calculated,1-decyl-3-[3-[(3-decylimidazol-1-ium-1-yl)methoxy]propoxymethyl]imidazol-3-ium-dichloride,"InChI=1S/C31H58N4O2.2ClH/c1-3-5-7-9-11-13-15-17-20-32-22-24-34(28-32)30-36-26-19-27-37-31-35-25-23-33(29-35)21-18-16-14-12-10-8-6-4-2;;/h22-25,28-29H,3-21,26-27,30-31H2,1-2H3;2*1H/q+2;;/p-2",YXZNHFHXPMMRML-UHFFFAOYSA-L,588.393682456
CCCCCCCCCCn1cc[n+](COCCOC[n+]2ccn(CCCCCCCCCC)c2)c1.[Cl-].[Cl-],gemini cationic,0.0012022644346174,2.92000000000001,45.3,0.00000241,0.7,26.67,3.08232057359317,0.0458527284627559,25,10.1111/cbdd.12236,10.1111/cbdd.12236,10.1002/9781119075691.ch43,,10.1111/cbdd.12236,calculated,10.1111/cbdd.12236,calculated,calculated,1-decyl-3-[2-[(3-decylimidazol-1-ium-1-yl)methoxy]ethoxymethyl]imidazol-3-ium-dichloride,"InChI=1S/C30H56N4O2.2ClH/c1-3-5-7-9-11-13-15-17-19-31-21-23-33(27-31)29-35-25-26-36-30-34-24-22-32(28-34)20-18-16-14-12-10-8-6-4-2;;/h21-24,27-28H,3-20,25-26,29-30H2,1-2H3;2*1H/q+2;;/p-2",BWNQQTBNMYXFFJ-UHFFFAOYSA-L,574.378032392
CCCCCCCCCNC(=O)C(O)C(O)C(OC1OC(CO)C(O)C(O)C1O)C(O)CO,sugar-based non-ionic,0.0057,2.24412514432751,31.8,0.00000426,0.39,40.2,3.1,0.000794,25,10.1021/acs.iecr.6b02890,10.1016/j.jcis.2018.01.051,10.1016/j.molliq.2018.01.037,,10.1006/jcis.1996.0054,,,,,Octyl-D-maltonamide,"InChI=1S/C21H41NO11/c1-2-3-4-5-6-7-8-9-22-20(31)17(29)16(28)19(12(25)10-23)33-21-18(30)15(27)14(26)13(11-24)32-21/h12-19,21,23-30H,2-11H2,1H3,(H,22,31)",RVAINDPJPFBMOZ-UHFFFAOYSA-N,483.267961132
CCCCCCCCCOC(=O)C([C@@H](O)C(O)[C@@H](O)CO)[C@@H](O)CO,sugar-based non-ionic,0.0044,2.35654732351381,25.4,,,46.57,,,25,10.1021/acs.iecr.6b02890,10.1016/j.jcis.2018.01.051,10.1016/j.molliq.2018.01.037,,,calculated,,,,"1-O-nonanoyl-D,L-xylitol","InChI=1S/C17H34O8/c1-2-3-4-5-6-7-8-9-25-17(24)14(12(20)10-18)16(23)15(22)13(21)11-19/h12-16,18-23H,2-11H2,1H3/t12-,13-,14?,15?,16+/m0/s1",NFAOGSPYVTULBM-RKVQBDSKSA-N,366.225368048
CCCCCCCCCOC([C@@H](O)C(O)[C@@H](O)CO)[C@@H](O)CO,sugar-based non-ionic,0.0021,2.67778070526608,,0.0000057,0.57,,3.4,0.0003981071705534,25,10.1021/acs.iecr.6b02890,,10.1016/j.molliq.2018.01.037,,10.1016/S0378-5173(99)00078-2,,10.1016/S0378-5173(99)00078-2,10.1016/S0378-5173(99)00078-2,,"1-O-nonyl-D,L-xylitol","InChI=1S/C16H34O7/c1-2-3-4-5-6-7-8-9-23-16(13(20)11-18)15(22)14(21)12(19)10-17/h12-22H,2-11H2,1H3/t12-,13-,14?,15-,16?/m0/s1",WJZNMFIKGUICCV-GYJLLUIASA-N,338.230453428
CCCCCCCCCOC1OC(CO)C(O)C(O)C1O,sugar-based non-ionic,0.0069,2.16115090926275,30.4,0.00000361,0.46,42.35,3.22708052230809,0.0396731547690389,20,10.1021/acs.iecr.6b02890,10.1016/j.jcis.2018.01.051,10.1016/j.molliq.2018.01.037,,10.1021/la035613e,calculated,,calculated,calculated,Nonyl-β-D-glucoside,"InChI=1S/C15H30O6/c1-2-3-4-5-6-7-8-9-20-15-14(19)13(18)12(17)11(10-16)21-15/h11-19H,2-10H2,1H3",QFAPUKLCALRPLH-UHFFFAOYSA-N,306.20423868
CCCCCCCCCOC1[CH][C@H](O)[C@@H](O)C(O)O1,non-ionic,0.002099,2.6779875614176,,,,,,,25,10.1021/ie4016232,,,,,,,,,,"InChI=1S/C14H27O5/c1-2-3-4-5-6-7-8-9-18-12-10-11(15)13(16)14(17)19-12/h10-17H,2-9H2,1H3/t11-,12?,13+,14?/m0/s1",JGLGQTFRAPIWQQ-RJZJGCCBSA-N,275.185848964