SMILES,Surfactant_Type,CMC,pCMC,AW_ST_CMC,Gamma_max,Area_min,Pi_CMC,pC20,C20,Temp_Celsius,Ref_CMC,Ref_AW_ST_CMC,SubRef_CMC,SubRef_AW_ST_CMC,Ref_Gamma_max,Ref_Pi_CMC,Ref_Area_min,Ref_pC20,Ref_C20,IUPAC_name,InChI,InChIKey,Molecular_Weight
CCCCCCCCCCCCCCCC[N+](C)(C)CC(=O)[O-],zwitterionic,0.00002,4.69897000433602,32.3,0.00000413,0.402067570744273,39.7,,,23,10.1021/acs.jpcb.1c05264,,10.1002/9781118228920.ch3,,10.1002/9781118228920.ch5,10.1002/9781118228920.ch5,calculated,,10.1002/9781118228920.ch5,2-[hexadecyl(dimethyl)azaniumyl]acetate,"InChI=1S/C20H41NO2/c1-4-5-6-7-8-9-10-11-12-13-14-15-16-17-18-21(2,3)19-20(22)23/h4-19H2,1-3H3",TYIOVYZMKITKRO-UHFFFAOYSA-N,327.313729552
CCCCCCCCCCCCCCCC[N+](C)(C)CC(O)C(O)C[N+](C)(C)CCCCCCCCCCCCCCCC.[Br-].[Br-],gemini cationic,0.00005,4.30102999566398,,,,,,,25,10.1063/5.0051623,,,,,,,,,,"InChI=1S/C40H86N2O2.2BrH/c1-7-9-11-13-15-17-19-21-23-25-27-29-31-33-35-41(3,4)37-39(43)40(44)38-42(5,6)36-34-32-30-28-26-24-22-20-18-16-14-12-10-8-2;;/h39-40,43-44H,7-38H2,1-6H3;2*1H/q+2;;/p-2",LBFWJWDMOGVJPX-UHFFFAOYSA-L,784.505604192
CCCCCCCCCCCCCCCC[N+](C)(C)CC(O)CC(O)[N+](C)(C)CCCCCCCCCCCCCCCC.[Br-].[Br-],gemini cationic,5.00034534976978E-05,4.301,,,,,,,25,10.1016/j.chemosphere.2011.05.031,,,,,,,,,,"InChI=1S/C40H86N2O2.2BrH/c1-7-9-11-13-15-17-19-21-23-25-27-29-31-33-35-41(3,4)38-39(43)37-40(44)42(5,6)36-34-32-30-28-26-24-22-20-18-16-14-12-10-8-2;;/h39-40,43-44H,7-38H2,1-6H3;2*1H/q+2;;/p-2",IDCZEUGGHCNOIL-UHFFFAOYSA-L,784.505604192
CCCCCCCCCCCCCCCC[N+](C)(C)CC(O)CN1CCN(CC(O)C[N+](C)(C)CCCCCCCCCCCCCCCC)CC1.[Cl-].[Cl-],gemini cationic,0.000403,3.39469495385889,36.5,0.000001789,0.93,35.5,5.218,0.00000605,25,10.1080/01932691.2014.986737,10.1016/j.ces.2022.118208,,10.1080/01932691.2014.986737,10.1080/01932691.2014.986737,10.1080/01932691.2014.986737,10.1080/01932691.2014.986737,10.1080/01932691.2014.986737,10.1080/01932691.2014.986737,N-bis(hexadecyltrimethylammonium)piperazine,"InChI=1S/C46H98N4O2.2ClH/c1-7-9-11-13-15-17-19-21-23-25-27-29-31-33-39-49(3,4)43-45(51)41-47-35-37-48(38-36-47)42-46(52)44-50(5,6)40-34-32-30-28-26-24-22-20-18-16-14-12-10-8-2;;/h45-46,51-52H,7-44H2,1-6H3;2*1H/q+2;;/p-2",QAFDHEOEAIAKEC-UHFFFAOYSA-L,808.706683736
CCCCCCCCCCCCCCCC[N+](C)(C)CC(O)COCCOCC(O)C[N+](C)(C)CCCCCCCCCCCCCCCC.[Br-].[Br-],gemini cationic,0.000621,3.20690839982342,37,0.00000131,1.26,35,4.14,0.0000724,25,10.1016/j.colsurfa.2011.12.014,10.1016/j.ces.2022.118208,,10.1016/j.colsurfa.2011.12.014,10.1016/j.colsurfa.2011.12.014,,10.1016/j.colsurfa.2011.12.014,10.1016/j.colsurfa.2011.12.014,,"α,ω-Bis(hexadecyldimethylammoniomethyl)trioxyethyleneglycoldibromide","InChI=1S/C44H94N2O4.2BrH/c1-7-9-11-13-15-17-19-21-23-25-27-29-31-33-35-45(3,4)39-43(47)41-49-37-38-50-42-44(48)40-46(5,6)36-34-32-30-28-26-24-22-20-18-16-14-12-10-8-2;;/h43-44,47-48H,7-42H2,1-6H3;2*1H/q+2;;/p-2",LHJNVDKYWMYYCD-UHFFFAOYSA-L,872.558033688
CCCCCCCCCCCCCCCC[N+](C)(C)CC(O)COCCOCCOCC(O)C[N+](C)(C)CCCCCCCCCCCCCCCC.[Br-].[Br-],gemini cationic,0.000389,3.41005039867429,36.5,0.000000785,2.12,35.5,4.71,0.0000195,25,10.1016/j.colsurfa.2011.12.014,10.1016/j.ces.2022.118208,,10.1016/j.colsurfa.2011.12.014,10.1016/j.colsurfa.2011.12.014,,10.1016/j.colsurfa.2011.12.014,10.1016/j.colsurfa.2011.12.014,,"α,ω-Bis(hexadecyldimethylammoniomethyl)tetraoxyethyleneglycoldibromide","InChI=1S/C46H98N2O5.2BrH/c1-7-9-11-13-15-17-19-21-23-25-27-29-31-33-35-47(3,4)41-45(49)43-52-39-37-51-38-40-53-44-46(50)42-48(5,6)36-34-32-30-28-26-24-22-20-18-16-14-12-10-8-2;;/h45-46,49-50H,7-44H2,1-6H3;2*1H/q+2;;/p-2",PNIBMGJCRHIYNB-UHFFFAOYSA-L,916.584248436
CCCCCCCCCCCCCCCC[N+](C)(C)CC(O)COCCOCCOCCOCC(O)C[N+](C)(C)CCCCCCCCCCCCCCCC.[Br-].[Br-],gemini cationic,0.000398,3.40011692792631,43.9,0.00000104,1.8,28.1,5.91,0.00000123,25,10.1016/j.colsurfa.2011.12.014,10.1016/j.ces.2022.118208,,10.1016/j.colsurfa.2011.12.014,10.1016/j.colsurfa.2011.12.014,,10.1016/j.colsurfa.2011.12.014,10.1016/j.colsurfa.2011.12.014,,"α,ω-Bis(hexadecyldimethylammoniomethyl)pentaoxyethyleneglycoldibromide","InChI=1S/C48H102N2O6.2BrH/c1-7-9-11-13-15-17-19-21-23-25-27-29-31-33-35-49(3,4)43-47(51)45-55-41-39-53-37-38-54-40-42-56-46-48(52)44-50(5,6)36-34-32-30-28-26-24-22-20-18-16-14-12-10-8-2;;/h47-48,51-52H,7-46H2,1-6H3;2*1H/q+2;;/p-2",JVEJJVAFUFAWMD-UHFFFAOYSA-L,960.610463184
CCCCCCCCCCCCCCCC[N+](C)(C)CC(O)COc1ccc(OCC(O)C[N+](C)(C)CCCCCCCCCCCCCCCC)cc1.[Cl-].[Cl-],gemini cationic,0.000006,5.22184874961636,43.3,0.00000099,1.68,28.7,5.75,0.00000178,25,10.1080/01932690903192580,10.1016/j.ces.2022.118208,,10.1080/01932690903192580,10.1080/01932690903192580,10.1080/01932690903192580,10.1080/01932690903192580,10.1080/01932690903192580,10.1080/01932690903192580,,"InChI=1S/C48H94N2O4.2ClH/c1-7-9-11-13-15-17-19-21-23-25-27-29-31-33-39-49(3,4)41-45(51)43-53-47-35-37-48(38-36-47)54-44-46(52)42-50(5,6)40-34-32-30-28-26-24-22-20-18-16-14-12-10-8-2;;/h35-38,45-46,51-52H,7-34,39-44H2,1-6H3;2*1H/q+2;;/p-2",QAZYEURSWSPBAP-UHFFFAOYSA-L,832.659064848
CCCCCCCCCCCCCCCC[N+](C)(C)CC(O)C[N+](C)(C)CCCCCCCCCCCCCCCC.[Cl-].[Cl-],gemini cationic,0.000019,4.72124639904717,42.2,,,29.8,5.3,0.00000501,25,10.1007/BF02517994,10.1016/j.ces.2022.118208,,10.1007/BF02517994,,,,10.1007/BF02517994,,bis-hexadecyldimethylammoniumsalt,"InChI=1S/C39H84N2O.2ClH/c1-7-9-11-13-15-17-19-21-23-25-27-29-31-33-35-40(3,4)37-39(42)38-41(5,6)36-34-32-30-28-26-24-22-20-18-16-14-12-10-8-2;;/h39,42H,7-38H2,1-6H3;2*1H/q+2;;/p-2",HMAYCSYZHMMONE-UHFFFAOYSA-L,666.596070668
CCCCCCCCCCCCCCCC[N+](C)(C)CCC/N=C/c1ccc(OC)c(OC)c1.[Br-],cationic,,,39.6,,,,,,,,10.1016/j.ces.2022.118208,,10.1016/j.molliq.2015.03.043,,,,,,,"InChI=1S/C30H55N2O2.BrH/c1-6-7-8-9-10-11-12-13-14-15-16-17-18-19-24-32(2,3)25-20-23-31-27-28-21-22-29(33-4)30(26-28)34-5;/h21-22,26-27H,6-20,23-25H2,1-5H3;1H/q+1;/p-1/b31-27+;",VOQNHCFTAVCCKW-OVXWMHFQSA-M,554.3446911
CCCCCCCCCCCCCCCC[N+](C)(C)CCCCCCCCCCCC[N+](C)(C)CCCCCCCCCCCCCCCC.[Br-].[Br-],gemini cationic,1.99986186963274E-05,4.699,,,,,,,25,10.1016/j.chemosphere.2011.05.031,,,,,,,,,,"InChI=1S/C48H102N2.2BrH/c1-7-9-11-13-15-17-19-21-23-25-29-33-37-41-45-49(3,4)47-43-39-35-31-27-28-32-36-40-44-48-50(5,6)46-42-38-34-30-26-24-22-20-18-16-14-12-10-8-2;;/h7-48H2,1-6H3;2*1H/q+2;;/p-2",UGWRREYDQHMMFN-UHFFFAOYSA-L,864.640975464
CCCCCCCCCCCCCCCC[N+](C)(C)CCCCCCCCCC[N+](C)(C)CCCCCCCCCCCCCCCC.[Br-].[Br-],gemini cationic,2.70022528688824E-05,4.5686,,,,,,,25,10.1016/j.chemosphere.2011.05.031,,,,,,,,,,"InChI=1S/C46H98N2.2BrH/c1-7-9-11-13-15-17-19-21-23-25-27-31-35-39-43-47(3,4)45-41-37-33-29-30-34-38-42-46-48(5,6)44-40-36-32-28-26-24-22-20-18-16-14-12-10-8-2;;/h7-46H2,1-6H3;2*1H/q+2;;/p-2",RZEAFVHJBQISLS-UHFFFAOYSA-L,836.609675336
CCCCCCCCCCCCCCCC[N+](C)(C)CCCCCCCC[N+](C)(C)CCCCCCCCCCCCCCCC.[Br-].[Br-],gemini cationic,3.29989407910835E-05,4.4815,,,,,,,25,10.1016/j.chemosphere.2011.05.031,,,,,,,,,,"InChI=1S/C44H94N2.2BrH/c1-7-9-11-13-15-17-19-21-23-25-27-29-33-37-41-45(3,4)43-39-35-31-32-36-40-44-46(5,6)42-38-34-30-28-26-24-22-20-18-16-14-12-10-8-2;;/h7-44H2,1-6H3;2*1H/q+2;;/p-2",FUNHFZXJFFCANR-UHFFFAOYSA-L,808.578375208
CCCCCCCCCCCCCCCC[N+](C)(C)CCCCCCC[N+](C)(C)CCCCCCCCCCCCCCCC.[Br-].[Br-],gemini cationic,0.000026,4.58502665202918,,,,,,,25,10.1063/5.0051623,,,,,,,,,,"InChI=1S/C43H92N2.2BrH/c1-7-9-11-13-15-17-19-21-23-25-27-29-32-36-40-44(3,4)42-38-34-31-35-39-43-45(5,6)41-37-33-30-28-26-24-22-20-18-16-14-12-10-8-2;;/h7-43H2,1-6H3;2*1H/q+2;;/p-2",JQZOGIWQFXAINO-UHFFFAOYSA-L,794.562725144
CCCCCCCCCCCCCCCC[N+](C)(C)CCCCCC[N+](C)(C)CCCCCC.[Br-].[Br-],gemini cationic,0.0008299,3.08097423541264,,,,,,,25,10.1063/5.0051623,,,,,,,,,,"InChI=1S/C32H70N2.2BrH/c1-7-9-11-13-14-15-16-17-18-19-20-21-22-26-30-34(5,6)32-28-24-23-27-31-33(3,4)29-25-12-10-8-2;;/h7-32H2,1-6H3;2*1H/q+2;;/p-2",VOGTXAAMFDHAPL-UHFFFAOYSA-L,640.39057444
CCCCCCCCCCCCCCCC[N+](C)(C)CCCCCC[N+](C)(C)CCCCCCCC.[Br-].[Br-],gemini cationic,0.000750066898736,3.12490000000004,,,,,,,25,10.1016/j.chemosphere.2011.05.031,,,,,,,,,,"InChI=1S/C34H74N2.2BrH/c1-7-9-11-13-15-16-17-18-19-20-21-22-24-28-32-36(5,6)34-30-26-25-29-33-35(3,4)31-27-23-14-12-10-8-2;;/h7-34H2,1-6H3;2*1H/q+2;;/p-2",IKFKTXYHLBMJJB-UHFFFAOYSA-L,668.421874568
CCCCCCCCCCCCCCCC[N+](C)(C)CCCCCC[N+](C)(C)CCCCCCCCCCCCCCCC.[Br-].[Br-],gemini cationic,4.30031233630544E-05,4.3665,37,0.000000689,2.41,34.78,5.87,0.0014,25,"['10.1016/j.chemosphere.2011.05.031', '10.1007/s11743-011-1269-0', '10.1007/s11743-011-1269-0']",10.1016/j.ces.2022.118208,,10.1007/s11743-011-1269-0,10.1007/s11743-011-1269-0,10.1007/s11743-011-1269-0,10.1007/s11743-011-1269-0,10.1007/s11743-011-1269-0,10.1007/s11743-011-1269-0,bis(hexadecyldimethylammonium)ethane,"InChI=1S/C42H90N2.2BrH/c1-7-9-11-13-15-17-19-21-23-25-27-29-31-35-39-43(3,4)41-37-33-34-38-42-44(5,6)40-36-32-30-28-26-24-22-20-18-16-14-12-10-8-2;;/h7-42H2,1-6H3;2*1H/q+2;;/p-2",OFCDWMVMKYLZAD-UHFFFAOYSA-L,780.54707508
CCCCCCCCCCCCCCCC[N+](C)(C)CCCCC[N+](C)(C)CCCCCCCCCCCCCCCC.[Br-].[Br-],gemini cationic,3.59997927043357E-05,4.4437,,,,,,,25,10.1016/j.chemosphere.2011.05.031,,,,,,,,,,"InChI=1S/C41H88N2.2BrH/c1-7-9-11-13-15-17-19-21-23-25-27-29-31-34-38-42(3,4)40-36-33-37-41-43(5,6)39-35-32-30-28-26-24-22-20-18-16-14-12-10-8-2;;/h7-41H2,1-6H3;2*1H/q+2;;/p-2",LVAHQMUPVDUACD-UHFFFAOYSA-L,766.531425016
CCCCCCCCCCCCCCCC[N+](C)(C)CCCCNC[N+](C)(C)CCCCCCCCCCCCCCCC.[Br-].[Br-],gemini cationic,1.20005182020427E-05,4.9208,,,,,,,25,10.1016/j.chemosphere.2011.05.031,,,,,,,,,,"InChI=1S/C41H89N3.2BrH/c1-7-9-11-13-15-17-19-21-23-25-27-29-31-34-38-43(3,4)39-36-33-37-42-41-44(5,6)40-35-32-30-28-26-24-22-20-18-16-14-12-10-8-2;;/h42H,7-41H2,1-6H3;2*1H/q+2;;/p-2",NASMIXYPXIVLDO-UHFFFAOYSA-L,781.542324048
CCCCCCCCCCCCCCCC[N+](C)(C)CCCCO[N+](C)(C)CCCCCCCCCCCCCCCC.[Br-].[Br-],gemini cationic,0.0006400295121083,3.19380000000005,,,,,,,25,10.1016/j.chemosphere.2011.05.031,,,,,,,,,,"InChI=1S/C40H86N2O.2BrH/c1-7-9-11-13-15-17-19-21-23-25-27-29-31-33-37-41(3,4)38-35-36-40-43-42(5,6)39-34-32-30-28-26-24-22-20-18-16-14-12-10-8-2;;/h7-40H2,1-6H3;2*1H/q+2;;/p-2",MHUXPDRYJIIXGQ-UHFFFAOYSA-L,768.510689572
CCCCCCCCCCCCCCCC[N+](C)(C)CCCC[N+](C)(C)CCCCCCCCCCCCCCCC.[Br-].[Br-],gemini cationic,2.70022528688824E-05,4.5686,43,0.000000738,2.25,28.78,5.28,0.0053,25,"['10.1016/j.chemosphere.2011.05.031', '10.1007/s11743-011-1269-0', '10.1007/s11743-011-1269-0']",10.1016/j.ces.2022.118208,,10.1007/s11743-011-1269-0,10.1007/s11743-011-1269-0,10.1007/s11743-011-1269-0,10.1007/s11743-011-1269-0,10.1007/s11743-011-1269-0,10.1007/s11743-011-1269-0,bis(hexadecyldimethylammonium)butane,"InChI=1S/C40H86N2.2BrH/c1-7-9-11-13-15-17-19-21-23-25-27-29-31-33-37-41(3,4)39-35-36-40-42(5,6)38-34-32-30-28-26-24-22-20-18-16-14-12-10-8-2;;/h7-40H2,1-6H3;2*1H/q+2;;/p-2",IRUJPPYZXHQHHU-UHFFFAOYSA-L,752.515774952
CCCCCCCCCCCCCCCC[N+](C)(C)CCCC[N+](C)(C)CCCCCCCCCCCCCCCC.[Cl-].[Cl-],gemini cationic,,,43,,,,,,,,10.1016/j.ces.2022.118208,,10.1007/s11743-001-0179-z,,,,,,,"InChI=1S/C40H86N2.2ClH/c1-7-9-11-13-15-17-19-21-23-25-27-29-31-33-37-41(3,4)39-35-36-40-42(5,6)38-34-32-30-28-26-24-22-20-18-16-14-12-10-8-2;;/h7-40H2,1-6H3;2*1H/q+2;;/p-2",SSLVDXATSDYDNN-UHFFFAOYSA-L,664.616806112
CCCCCCCCCCCCCCCC[N+](C)(C)CCCN=Cc1ccccc1.[Br-],cationic,,,40,,,,,,,,10.1016/j.ces.2022.118208,,10.1016/j.ejpe.2017.05.006,,,,,,,"InChI=1S/C28H51N2.BrH/c1-4-5-6-7-8-9-10-11-12-13-14-15-16-20-25-30(2,3)26-21-24-29-27-28-22-18-17-19-23-28;/h17-19,22-23,27H,4-16,20-21,24-26H2,1-3H3;1H/q+1;/p-1",VKAWJNROEKLZJM-UHFFFAOYSA-M,494.323561732
CCCCCCCCCCCCCCCC[N+](C)(C)CCCNC(=O)CCCCCCCCCCCCC.[Br-],cationic,0.000086,4.06550154875643,34.6,0.00000083,1.99,37.19,6.42,0.000000382,25,10.1016/j.molliq.2015.10.024,10.1016/j.ces.2022.118208,,10.1016/j.molliq.2015.10.024,10.1016/j.molliq.2015.10.024,10.1016/j.molliq.2015.10.024,10.1016/j.molliq.2015.10.024,10.1016/j.molliq.2015.10.024,,"N,N-dimethyl-N-(3-tetradecanamidopropyl)hexadecan-1-ammoniumbromide","InChI=1S/C35H72N2O.BrH/c1-5-7-9-11-13-15-17-18-19-21-23-25-27-29-33-37(3,4)34-30-32-36-35(38)31-28-26-24-22-20-16-14-12-10-8-6-2;/h5-34H2,1-4H3;1H",SKUJPJDRILTUQG-UHFFFAOYSA-N,616.490627056
CCCCCCCCCCCCCCCC[N+](C)(C)CCCNC(=O)c1ccc(C(=O)NCCC[N+](C)(C)CCCCCCCCCCCCCCCC)cc1.[Br-].[Br-],gemini cationic,0.000061,4.21467016498923,43.4,0.00000077,2.16,28.6,4.9,0.0000126,25,10.1007/s11743-015-1752-0,10.1016/j.ces.2022.118208,,10.1007/s11743-015-1752-0,10.1007/s11743-015-1752-0,10.1007/s11743-015-1752-0,10.1007/s11743-015-1752-0,10.1007/s11743-015-1752-0,,,"InChI=1S/C50H94N4O2.2BrH/c1-7-9-11-13-15-17-19-21-23-25-27-29-31-33-43-53(3,4)45-35-41-51-49(55)47-37-39-48(40-38-47)50(56)52-42-36-46-54(5,6)44-34-32-30-28-26-24-22-20-18-16-14-12-10-8-2;;/h37-40H,7-36,41-46H2,1-6H3;2*1H",SNZHOTIRRROMLG-UHFFFAOYSA-N,942.590002512
CCCCCCCCCCCCCCCC[N+](C)(C)CCCNCCC[N+](C)(C)CCCCCCCCCCCCCCCC.[Br-].[Br-],gemini cationic,0.00006699,4.1739900222089,,,,,,,25,10.1063/5.0051623,,,,,,,,,,"InChI=1S/C42H91N3.2BrH/c1-7-9-11-13-15-17-19-21-23-25-27-29-31-33-39-44(3,4)41-35-37-43-38-36-42-45(5,6)40-34-32-30-28-26-24-22-20-18-16-14-12-10-8-2;;/h43H,7-42H2,1-6H3;2*1H/q+2;;/p-2",ZXCDUSVLOVWTBD-UHFFFAOYSA-L,795.557974112
CCCCCCCCCCCCCCCC[N+](C)(C)CCC[N+](C)(C)CCCCCCCCCCCCCCCC.[Br-].[Br-],gemini cationic,2.49976970217851E-05,4.6021,,,,,,,25,10.1016/j.chemosphere.2011.05.031,,,,,,,,,,"InChI=1S/C39H84N2.2BrH/c1-7-9-11-13-15-17-19-21-23-25-27-29-31-33-36-40(3,4)38-35-39-41(5,6)37-34-32-30-28-26-24-22-20-18-16-14-12-10-8-2;;/h7-39H2,1-6H3;2*1H/q+2;;/p-2",LZLBBKACUZCHAV-UHFFFAOYSA-L,738.500124888
CCCCCCCCCCCCCCCC[N+](C)(C)CCC[N+](C)(C)CCCCCCCCCCCCCCCC.[Cl-].[Cl-],gemini cationic,0.000015,4.82390874094432,42,,,30,5.4,0.00000398,25,10.1007/BF02517994,10.1016/j.ces.2022.118208,,10.1007/BF02517994,,,,10.1007/BF02517994,,bis-hexadecyldimethylammoniumsalt,"InChI=1S/C39H84N2.2ClH/c1-7-9-11-13-15-17-19-21-23-25-27-29-31-33-36-40(3,4)38-35-39-41(5,6)37-34-32-30-28-26-24-22-20-18-16-14-12-10-8-2;;/h7-39H2,1-6H3;2*1H/q+2;;/p-2",VSUVCWOISMKUDN-UHFFFAOYSA-L,650.601156048
CCCCCCCCCCCCCCCC[N+](C)(C)CCN(C)CC[N+](C)(C)CCCCCCCCCCCCCCCC.[Br-].[Br-],gemini cationic,0.000014,4.85387196432176,42.9,0.00000139,1.19,29.1,5.23611748128425,0.00532087518189113,25,10.1016/0021-9797(86)90417-0,10.1016/j.ces.2022.118208,,10.1016/0021-9797(86)90417-0,10.1016/0021-9797(86)90417-0,,,calculated,calculated,"N,N'-bis(hexadecyldimethyl)-3-N-methyl-1,5-pentanediammoniumdibromide","InChI=1S/C41H89N3.2BrH/c1-8-10-12-14-16-18-20-22-24-26-28-30-32-34-38-43(4,5)40-36-42(3)37-41-44(6,7)39-35-33-31-29-27-25-23-21-19-17-15-13-11-9-2;;/h8-41H2,1-7H3;2*1H/q+2;;/p-2",QMKWSHDNELZGLH-UHFFFAOYSA-L,781.542324048
CCCCCCCCCCCCCCCC[N+](C)(C)CCN=Cc1ccc(OC)c(OC)c1.[Br-],cationic,0.00023,3.63827216398241,36.7,0.00000083,0.22,35.15,5.08,0.0000083,25,10.1002/jsde.12318,10.1016/j.ces.2022.118208,,10.1002/jsde.12318,10.1002/jsde.12318,10.1002/jsde.12318,10.1002/jsde.12318,,10.1002/jsde.12318,"N-(2-((3,4-dimethoxybenzylidene)amino)ethyl)-N,N-dimethylhexadectan1-aminiumbromide","InChI=1S/C29H53N2O2.BrH/c1-6-7-8-9-10-11-12-13-14-15-16-17-18-19-23-31(2,3)24-22-30-26-27-20-21-28(32-4)29(25-27)33-5;/h20-21,25-26H,6-19,22-24H2,1-5H3;1H/q+1;/p-1",VUUCXSBLKNDFMG-UHFFFAOYSA-M,540.329041036
CCCCCCCCCCCCCCCC[N+](C)(C)CCOC(=O)CCC(=O)OCC[N+](C)(C)CCCCCCCCCCCCCCCC.[Cl-].[Cl-],gemini cationic,,,36.7,,,,,,,,10.1016/j.ces.2022.118208,,10.1016/j.molliq.2017.01.056,,,,,,,"InChI=1S/C44H90N2O4.2ClH/c1-7-9-11-13-15-17-19-21-23-25-27-29-31-33-37-45(3,4)39-41-49-43(47)35-36-44(48)50-42-40-46(5,6)38-34-32-30-28-26-24-22-20-18-16-14-12-10-8-2;;/h7-42H2,1-6H3;2*1H/q+2;;/p-2",LLPIYOYOQZXZIS-UHFFFAOYSA-L,780.62776472
CCCCCCCCCCCCCCCC[N+](C)(C)CCOC(=O)CCCCCCC(=O)OCC[N+](C)(C)CCCCCCCCCCCCCCCC.[Cl-].[Cl-],gemini cationic,,,30.6,,,,,,,,10.1016/j.ces.2022.118208,,10.1016/j.molliq.2017.01.056,,,,,,,"InChI=1S/C48H98N2O4.2ClH/c1-7-9-11-13-15-17-19-21-23-25-27-29-33-37-41-49(3,4)43-45-53-47(51)39-35-31-32-36-40-48(52)54-46-44-50(5,6)42-38-34-30-28-26-24-22-20-18-16-14-12-10-8-2;;/h7-46H2,1-6H3;2*1H/q+2;;/p-2",YUGRJTROMKKJDU-UHFFFAOYSA-L,836.690364976
CCCCCCCCCCCCCCCC[N+](C)(C)CCOC1OC(CO)C(O)C(O)C1O.[Br-],cationic,0.00051,3.29242982390206,39.1,0.00000133,1.25,32.9,4.19,0.0000638,25,10.1021/jo051579s,10.1016/j.ces.2022.118208,,10.1021/jo051579s,,,10.1021/jo051579s,10.1021/jo051579s,,"2-dodecyldimethylamine-(2,3,4,6-tetra-O-hydroxy)-β-D--glucopyranosidebromide","InChI=1S/C26H54NO6.BrH/c1-4-5-6-7-8-9-10-11-12-13-14-15-16-17-18-27(2,3)19-20-32-26-25(31)24(30)23(29)22(21-28)33-26;/h22-26,28-31H,4-21H2,1-3H3;1H/q+1;/p-1",BWULRELORSVIOQ-UHFFFAOYSA-M,555.313450548
CCCCCCCCCCCCCCCC[N+](C)(C)CCOC1OC(COC)C(OC)C(OC)C1OC.[Br-],cationic,0.00021,3.67778070526608,35.1,0.00000111,1.5,36.9,5.02,0.00000968,25,10.1021/jo051579s,10.1016/j.ces.2022.118208,,10.1021/jo051579s,,,10.1021/jo051579s,10.1021/jo051579s,,"2-dodecyldimethylamine-(2,3,4,6-tetra-O-acetyl)-β-D--glucopyranosidebromide","InChI=1S/C30H62NO6.BrH/c1-8-9-10-11-12-13-14-15-16-17-18-19-20-21-22-31(2,3)23-24-36-30-29(35-7)28(34-6)27(33-5)26(37-30)25-32-4;/h26-30H,8-25H2,1-7H3;1H/q+1;/p-1",OSHBOBRPWQNEGG-UHFFFAOYSA-M,611.376050804
CCCCCCCCCCCCCCCC[N+](C)(C)CCOCCO.[Br-],cationic,0.000827,3.08249449044745,34,0.00000085,1.95,37.79,4.92,0.0000121,25,10.1016/j.molliq.2016.05.088,10.1016/j.ces.2022.118208,,10.1016/j.molliq.2016.05.088,10.1016/j.molliq.2016.05.088,10.1016/j.molliq.2016.05.088,10.1016/j.molliq.2016.05.088,,10.1016/j.molliq.2016.05.088,"N-(2-(2-hydroxyethoxy)ethyl)-N,N-dimethylhexadecan-1-aminiumbromide","InChI=1S/C22H48NO2.BrH/c1-4-5-6-7-8-9-10-11-12-13-14-15-16-17-18-23(2,3)19-21-25-22-20-24;/h24H,4-22H2,1-3H3;1H/q+1;/p-1",WPIRCOZWZRMLOS-UHFFFAOYSA-M,437.286841876
CCCCCCCCCCCCCCCC[N+](C)(C)CCOCC[N+](C)(C)CCCCCCCCCCCCCCCC.[Br-].[Br-],gemini cationic,0.0000066,5.18045606445813,37,0.0000016,3.5,35,5.72,0.00000191,25,"['10.1016/j.crci.2019.04.002', '10.1021/la9904096', '10.1021/la9904096']",10.1016/j.ces.2022.118208,,10.1021/la9904096,10.1021/la9904096,,10.1021/la9904096,10.1021/la9904096,,"ether-α,ω-bis-(dimethylhexadecylammoniumbromide)","InChI=1S/C40H86N2O.2BrH/c1-7-9-11-13-15-17-19-21-23-25-27-29-31-33-35-41(3,4)37-39-43-40-38-42(5,6)36-34-32-30-28-26-24-22-20-18-16-14-12-10-8-2;;/h7-40H2,1-6H3;2*1H/q+2;;/p-2",FJPVMTYMOAAPIL-UHFFFAOYSA-L,768.510689572
CCCCCCCCCCCCCCCC[N+](C)(C)CCOP(=O)([O-])OCCCCCCCCCC,gemini zwitterionic,5.00034534976978E-06,5.301,,,,,,,25,10.1016/j.chemosphere.2011.05.031,,,,,,,,,,"InChI=1S/C30H64NO4P/c1-5-7-9-11-13-15-16-17-18-19-20-21-23-25-27-31(3,4)28-30-35-36(32,33)34-29-26-24-22-14-12-10-8-6-2/h5-30H2,1-4H3",AJMCRWBEHPALGR-UHFFFAOYSA-N,533.457296158
CCCCCCCCCCCCCCCC[N+](C)(C)CCOc1ccc(C=NNC(=O)C(=O)NN=Cc2ccc(OCC[N+](C)(C)CCCCCCCCCCCCCCCC)cc2)cc1.[Cl-].[Cl-],gemini cationic,,,30.9,,,,,,,,10.1016/j.ces.2022.118208,,10.1080/01932691.2021.1929289,,,,,,,"InChI=1S/C56H96N6O4.2ClH/c1-7-9-11-13-15-17-19-21-23-25-27-29-31-33-43-61(3,4)45-47-65-53-39-35-51(36-40-53)49-57-59-55(63)56(64)60-58-50-52-37-41-54(42-38-52)66-48-46-62(5,6)44-34-32-30-28-26-24-22-20-18-16-14-12-10-8-2;;/h35-42,49-50H,7-34,43-48H2,1-6H3;2*1H",RZYOTGPRTIGTRP-UHFFFAOYSA-N,988.702660976
CCCCCCCCCCCCCCCC[N+](C)(C)CCSCC[N+](C)(C)CCCCCCCCCCCCCCCC.[Br-].[Br-],gemini cationic,9.70063133783956E-06,5.0132,41.9,0.00000139,1.19,30.1,5.4374505188265,0.00435056081663753,25,"['10.1016/j.chemosphere.2011.05.031', '10.1016/0021-9797(86)90417-0', '10.1016/0021-9797(86)90417-0']",10.1016/j.ces.2022.118208,,10.1016/0021-9797(86)90417-0,10.1016/0021-9797(86)90417-0,,,calculated,calculated,"N,N'-bis(hexadecyldimethyl)-3-S-1,5-pentanediammoniumdibromide","InChI=1S/C40H86N2S.2BrH/c1-7-9-11-13-15-17-19-21-23-25-27-29-31-33-35-41(3,4)37-39-43-40-38-42(5,6)36-34-32-30-28-26-24-22-20-18-16-14-12-10-8-2;;/h7-40H2,1-6H3;2*1H/q+2;;/p-2",GVZGSHODKFIADD-UHFFFAOYSA-L,784.487845952