SMILES,Surfactant_Type,CMC,pCMC,AW_ST_CMC,Gamma_max,Area_min,Pi_CMC,pC20,C20,Temp_Celsius,Ref_CMC,Ref_AW_ST_CMC,SubRef_CMC,SubRef_AW_ST_CMC,Ref_Gamma_max,Ref_Pi_CMC,Ref_Area_min,Ref_pC20,Ref_C20,IUPAC_name,InChI,InChIKey,Molecular_Weight
CCCCCCCCSC[C@H](O)[C@H](O)[C@@H](O)CO,sugar-based non-ionic,0.0012,2.92081875395238,33,0.00000359,0.46,39.75,5.4,0.00000398,20,10.1021/acs.iecr.6b02890,10.1016/j.jcis.2004.01.020,10.1016/j.molliq.2018.01.037,,10.1016/j.jcis.2004.01.020,calculated,10.1016/j.jcis.2004.01.020,10.1016/j.jcis.2004.01.020,,S-octyl1-thio-L-xylitol,"InChI=1S/C13H28O4S/c1-2-3-4-5-6-7-8-18-10-12(16)13(17)11(15)9-14/h11-17H,2-10H2,1H3/t11-,12-,13+/m0/s1",FDSWKFGOZVKWGW-RWMBFGLXSA-N,280.170830376
CCCCCCCC[N+](C)(C)C.[Br-],cationic,0.00014,3.85387196432176,,,,,,,25,10.1021/acs.jpcb.1c05264,,10.1002/9781118228920,,,,,,,trimethyl(octyl)azanium-bromide,"InChI=1S/C11H26N.BrH/c1-5-6-7-8-9-10-11-12(2,3)4;/h5-11H2,1-4H3;1H/q+1;/p-1",XCOHAFVJQZPUKF-UHFFFAOYSA-M,251.124861932
CCCCCCCC[N+](C)(C)CC#CC[N+](C)(C)CCCCCCCC.[Br-].[Br-],gemini cationic,0.0254976408779928,1.5935,,,,,,,25,10.1016/j.chemosphere.2011.05.031,,,,,,,,,,"InChI=1S/C24H50N2.2BrH/c1-7-9-11-13-15-17-21-25(3,4)23-19-20-24-26(5,6)22-18-16-14-12-10-8-2;;/h7-18,21-24H2,1-6H3;2*1H/q+2;;/p-2",HSRVYDZXPGSLRX-UHFFFAOYSA-L,524.2340738
CCCCCCCC[N+](C)(C)CC(=O)[O-],zwitterionic,0.25,0.602059991327962,,,,,,,25,10.1002/9781118228920.ch3,,,,,,,,,2-[dimethyl(octyl)azaniumyl]acetate,"InChI=1S/C12H25NO2/c1-4-5-6-7-8-9-10-13(2,3)11-12(14)15/h4-11H2,1-3H3",YPUUGRMTUUCONZ-UHFFFAOYSA-N,215.18852904
CCCCCCCC[N+](C)(C)CC(O)COCCOCC(O)C[N+](C)(C)CCCCCCCC.[Br-].[Br-],gemini cationic,,,55.2,,,,,,,,10.1016/j.ces.2022.118208,,10.1016/j.colsurfa.2011.12.014,,,,,,,"InChI=1S/C28H62N2O4.2BrH/c1-7-9-11-13-15-17-19-29(3,4)23-27(31)25-33-21-22-34-26-28(32)24-30(5,6)20-18-16-14-12-10-8-2;;/h27-28,31-32H,7-26H2,1-6H3;2*1H/q+2;;/p-2",DVPPNMGORYALIM-UHFFFAOYSA-L,648.307632664
CCCCCCCC[N+](C)(C)CC(O)COCCOCCOCC(O)C[N+](C)(C)CCCCCCCC.[Br-].[Br-],gemini cationic,0.001822,2.73945162736302,49.1,0.000000519,3.2,22.9,3.42,0.000383,25,10.1016/j.colsurfa.2011.12.014,10.1016/j.ces.2022.118208,,10.1016/j.colsurfa.2011.12.014,10.1016/j.colsurfa.2011.12.014,,10.1016/j.colsurfa.2011.12.014,10.1016/j.colsurfa.2011.12.014,,"α,ω-Bis(octyldimethylammoniomethyl)tetraoxyethyleneglycoldibromide","InChI=1S/C30H66N2O5.2BrH/c1-7-9-11-13-15-17-19-31(3,4)25-29(33)27-36-23-21-35-22-24-37-28-30(34)26-32(5,6)20-18-16-14-12-10-8-2;;/h29-30,33-34H,7-28H2,1-6H3;2*1H/q+2;;/p-2",QNGZCSYTUADBGH-UHFFFAOYSA-L,692.333847412
CCCCCCCC[N+](C)(C)CC(O)COCCOCCOCCOCC(O)C[N+](C)(C)CCCCCCCC.[Br-].[Br-],gemini cationic,,,52.2,,,,,,,,10.1016/j.ces.2022.118208,,10.1016/j.colsurfa.2011.12.014,,,,,,,"InChI=1S/C32H70N2O6.2BrH/c1-7-9-11-13-15-17-19-33(3,4)27-31(35)29-39-25-23-37-21-22-38-24-26-40-30-32(36)28-34(5,6)20-18-16-14-12-10-8-2;;/h31-32,35-36H,7-30H2,1-6H3;2*1H/q+2;;/p-2",JINVGLCOUNDBGO-UHFFFAOYSA-L,736.36006216
CCCCCCCC[N+](C)(C)CCCCCCCC.[Br-],cationic,,,23,,,,,,,,10.1016/j.ces.2022.118208,,10.1201/9780203911518,,,,,,,"InChI=1S/C18H40N.BrH/c1-5-7-9-11-13-15-17-19(3,4)18-16-14-12-10-8-6-2;/h5-18H2,1-4H3;1H/q+1;/p-1",APTVNWGLSRAOFJ-UHFFFAOYSA-M,349.23441238
CCCCCCCC[N+](C)(C)CCCCCC[N+](C)(C)CCCCCCCC.[Br-].[Br-],gemini cationic,0.0251999686210924,1.5986,,,,,,,25,10.1016/j.chemosphere.2011.05.031,,,,,,,,,,"InChI=1S/C26H58N2.2BrH/c1-7-9-11-13-15-19-23-27(3,4)25-21-17-18-22-26-28(5,6)24-20-16-14-12-10-8-2;;/h7-26H2,1-6H3;2*1H/q+2;;/p-2",QCRBRNLZCSIHJK-UHFFFAOYSA-L,556.296674056
CCCCCCCC[N+](C)(C)CCCCC[N+](C)(C)CCCCCCCC.[Br-].[Br-],gemini cationic,0.0263026799189538,1.58,40.3,0.00000142,1.17,31.7,2.06107559529182,0.127316954704534,25,"['10.1016/j.chemosphere.2011.05.031', '10.1016/0021-9797(86)90417-0', '10.1016/0021-9797(86)90417-0']",10.1016/j.ces.2022.118208,,10.1016/0021-9797(86)90417-0,10.1016/0021-9797(86)90417-0,,,calculated,calculated,"N,N'-bis(octyldimethyl)-3-methyl-1,5-pentanediammoniumdibromide","InChI=1S/C25H56N2.2BrH/c1-7-9-11-13-15-18-22-26(3,4)24-20-17-21-25-27(5,6)23-19-16-14-12-10-8-2;;/h7-25H2,1-6H3;2*1H/q+2;;/p-2",ZTFJLNHBYQFRRM-UHFFFAOYSA-L,542.281023992
CCCCCCCC[N+](C)(C)CCCCNC[N+](C)(C)CCCCCCCC.[Br-].[Br-],gemini cationic,0.0310027344199819,1.5086,,,,,,,25,10.1016/j.chemosphere.2011.05.031,,,,,,,,,,"InChI=1S/C25H57N3.2BrH/c1-7-9-11-13-15-18-22-27(3,4)23-20-17-21-26-25-28(5,6)24-19-16-14-12-10-8-2;;/h26H,7-25H2,1-6H3;2*1H/q+2;;/p-2",IEEFTJAPTKCGFD-UHFFFAOYSA-L,557.291923024
CCCCCCCC[N+](C)(C)CCCCO[N+](C)(C)CCCCCCCC.[Br-].[Br-],gemini cationic,0.0440047947835984,1.3565,,,,,,,25,10.1016/j.chemosphere.2011.05.031,,,,,,,,,,"InChI=1S/C24H54N2O.2BrH/c1-7-9-11-13-15-17-21-25(3,4)22-19-20-24-27-26(5,6)23-18-16-14-12-10-8-2;;/h7-24H2,1-6H3;2*1H/q+2;;/p-2",IGWBWFUJECEDCQ-UHFFFAOYSA-L,544.260288548
CCCCCCCC[N+](C)(C)CCCC[N+](C)(C)CCCCCCCC.[Br-].[Br-],gemini cationic,0.0261999220977276,1.5817,,,,,,,25,10.1016/j.chemosphere.2011.05.031,,,,,,,,,,"InChI=1S/C24H54N2.2BrH/c1-7-9-11-13-15-17-21-25(3,4)23-19-20-24-26(5,6)22-18-16-14-12-10-8-2;;/h7-24H2,1-6H3;2*1H/q+2;;/p-2",VQBPBZFPJCJXQD-UHFFFAOYSA-L,528.265373928
CCCCCCCC[N+](C)(C)CCCNC(=[N+])N(C)C.[Br-].[Br-],gemini cationic,,,35.9,,,,,,,,10.1016/j.ces.2022.118208,,10.1007/s11743-012-1417-1,,,,,,,"InChI=1S/C16H36N4.2BrH/c1-6-7-8-9-10-11-14-20(4,5)15-12-13-18-16(17)19(2)3;;/h18H,6-15H2,1-5H3;2*1H/q+2;;/p-2",NMLKZJWAJGADAJ-UHFFFAOYSA-L,442.130671352
CCCCCCCC[N+](C)(C)CCC[N+](C)(C)CCCCCCCC.[Br-].[Br-],gemini cationic,0.0138006645597033,1.8601,,,,,,,25,10.1016/j.chemosphere.2011.05.031,,,,,,,,,,"InChI=1S/C23H52N2.2BrH/c1-7-9-11-13-15-17-20-24(3,4)22-19-23-25(5,6)21-18-16-14-12-10-8-2;;/h7-23H2,1-6H3;2*1H/q+2;;/p-2",NLIITPNWOLYYBE-UHFFFAOYSA-L,514.249723864
CCCCCCCC[N+](C)(C)CCN(C)CC[N+](C)(C)CCCCCCCC.[Br-].[Br-],gemini cationic,0.037,1.43179827593301,37.1,0.00000169,0.98,34.9,1.94657081652798,0.142762792960005,25,10.1016/0021-9797(86)90417-0,10.1016/j.ces.2022.118208,,10.1016/0021-9797(86)90417-0,10.1016/0021-9797(86)90417-0,,,calculated,calculated,"N,N'-bis(octyldimethyl)-3-N-methyl-1,5-pentanediammoniumdibromide","InChI=1S/C25H57N3.2BrH/c1-8-10-12-14-16-18-22-27(4,5)24-20-26(3)21-25-28(6,7)23-19-17-15-13-11-9-2;;/h8-25H2,1-7H3;2*1H/q+2;;/p-2",JCHWIIPFZQNAES-UHFFFAOYSA-L,557.291923024
CCCCCCCC[N+](C)(C)CCN=Cc1ccc(OC)c(OC)c1.[Br-],cationic,0.000805,3.09420411963213,34.7,0.00000101,1.65,37.07,4.53,0.0000296,25,10.1002/jsde.12318,10.1016/j.ces.2022.118208,,10.1002/jsde.12318,10.1002/jsde.12318,10.1002/jsde.12318,10.1002/jsde.12318,,10.1002/jsde.12318,"N-(2-((3,4-dimethoxybenzylidene)amino)ethyl)-N,N-dimethyloctan-1-aminiumbromide","InChI=1S/C21H37N2O2.BrH/c1-6-7-8-9-10-11-15-23(2,3)16-14-22-18-19-12-13-20(24-4)21(17-19)25-5;/h12-13,17-18H,6-11,14-16H2,1-5H3;1H/q+1;/p-1",YDOLNPUHQRORJP-UHFFFAOYSA-M,428.203840524
CCCCCCCC[N+](C)(C)CCOC1OC(COC)C(OC)C(OC)C1OC.[Br-],cationic,0.00578,2.23807216157947,37.8,0.00000106,1.57,34.2,3.4,0.000399,25,10.1021/jo051579s,10.1016/j.ces.2022.118208,,10.1021/jo051579s,,,10.1021/jo051579s,10.1021/jo051579s,,"2-bromoethyl-(2,3,4,6-tetra-O-acetyl)-â-D-glucopyranoside","InChI=1S/C22H46NO6.BrH/c1-8-9-10-11-12-13-14-23(2,3)15-16-28-22-21(27-7)20(26-6)19(25-5)18(29-22)17-24-4;/h18-22H,8-17H2,1-7H3;1H/q+1;/p-1",YPGJJCBRFBWFML-UHFFFAOYSA-M,499.250850292
CCCCCCCC[N+](C)(C)CCOCCO.[Br-],cationic,0.001719,2.76472412331295,35.9,0.0000008,2.02,35.93,4.58,0.0000262,25,10.1016/j.molliq.2016.05.088,10.1016/j.ces.2022.118208,,10.1016/j.molliq.2016.05.088,10.1016/j.molliq.2016.05.088,10.1016/j.molliq.2016.05.088,10.1016/j.molliq.2016.05.088,,10.1016/j.molliq.2016.05.088,"N-(2-(2-hydroxyethoxy)ethyl)-N,N-dimethyldodecan-1-aminiumbromide","InChI=1S/C14H32NO2.BrH/c1-4-5-6-7-8-9-10-15(2,3)11-13-17-14-12-16;/h16H,4-14H2,1-3H3;1H/q+1;/p-1",SQXUZNZHNRYUEC-UHFFFAOYSA-M,325.161641364
CCCCCCCC[N+](C)(C)CCOCC[N+](C)(C)CCCCCCCC.[Br-].[Br-],gemini cationic,0.0211,1.67571754470231,,,,,,,25,10.1016/j.crci.2019.04.002,,,,,,,,,2-[2-[dimethyl(octyl)azaniumyl]ethoxy]ethyl-dimethyl-octylazanium-dibromide,"InChI=1S/C24H54N2O.2BrH/c1-7-9-11-13-15-17-19-25(3,4)21-23-27-24-22-26(5,6)20-18-16-14-12-10-8-2;;/h7-24H2,1-6H3;2*1H/q+2;;/p-2",XICNBWOUXVORMU-UHFFFAOYSA-L,544.260288548
CCCCCCCC[N+](C)(C)CCSCC[N+](C)(C)CCCCCCCC.[Br-].[Br-],gemini cationic,0.036999853117286,1.4318,,,,,,,25,10.1016/j.chemosphere.2011.05.031,,,,,,,,,,"InChI=1S/C24H54N2S.2BrH/c1-7-9-11-13-15-17-19-25(3,4)21-23-27-24-22-26(5,6)20-18-16-14-12-10-8-2;;/h7-24H2,1-6H3;2*1H/q+2;;/p-2",HZCJKYVMHZSPBR-UHFFFAOYSA-L,560.237444928
CCCCCCCC[N+](C)(C)CC[N+](C)(CCCCCCCC)CC[N+](C)(C)CCCCCCCC.[Br-].[Br-].[Br-],gemini cationic,0.0136,1.86646109162978,35.1,0.00000107,1.55,36.9,2.55810092722846,0.0774516872581705,25,10.1016/j.jcis.2003.12.021,10.1016/j.ces.2022.118208,,10.1016/j.jcis.2003.12.021,10.1016/j.jcis.2003.12.021,,10.1016/j.jcis.2003.12.021,calculated,calculated,"1,2,3-tris(octacyldimethylammonio)ethanetribromide","InChI=1S/C33H74N3.3BrH/c1-9-12-15-18-21-24-27-34(4,5)30-32-36(8,29-26-23-20-17-14-11-3)33-31-35(6,7)28-25-22-19-16-13-10-2;;;/h9-33H2,1-8H3;3*1H/q+3;;;/p-3",JEXWEZGWNCREAL-UHFFFAOYSA-K,749.343285668
CCCCCCCC[N+](C)(C)CCc1c(CC)cccc1[N+](C)(C)CCCCCCCC.[Br-].[Br-],gemini cationic,0.0235017390609139,1.6289,,,,,,,25,10.1016/j.chemosphere.2011.05.031,,,,,,,,,,"InChI=1S/C30H58N2.2BrH/c1-8-11-13-15-17-19-25-31(4,5)27-24-29-28(10-3)22-21-23-30(29)32(6,7)26-20-18-16-14-12-9-2;;/h21-23H,8-20,24-27H2,1-7H3;2*1H/q+2;;/p-2",OWKLIIIQJDKUMK-UHFFFAOYSA-L,604.296674056
CCCCCCCC[N+](C)(C)CCc1ccc(CC)cc1[N+](C)(C)CCCCCCCC.[Br-].[Br-],gemini cationic,0.0245019133688078,1.6108,,,,,,,25,10.1016/j.chemosphere.2011.05.031,,,,,,,,,,"InChI=1S/C30H58N2.2BrH/c1-8-11-13-15-17-19-24-31(4,5)26-23-29-22-21-28(10-3)27-30(29)32(6,7)25-20-18-16-14-12-9-2;;/h21-22,27H,8-20,23-26H2,1-7H3;2*1H/q+2;;/p-2",IUJOXCZAAHLWRR-UHFFFAOYSA-L,604.296674056
CCCCCCCC[N+](C)(C)CCc1cccc(CC)c1[N+](C)(C)CCCCCCCC.[Br-].[Br-],gemini cationic,0.0225995608443438,1.6459,,,,,,,25,10.1016/j.chemosphere.2011.05.031,,,,,,,,,,"InChI=1S/C30H58N2.2BrH/c1-8-11-13-15-17-19-25-31(4,5)27-24-29-23-21-22-28(10-3)30(29)32(6,7)26-20-18-16-14-12-9-2;;/h21-23H,8-20,24-27H2,1-7H3;2*1H/q+2;;/p-2",RGVMCJQBHZTDBF-UHFFFAOYSA-L,604.296674056
CCCCCCCC[N+](C)(C)c1ccc(C=Nc2c(C)n(C)n(-c3ccccc3)c2=O)cc1.[Br-],cationic,0.000431,3.36552272983927,41.3,0.00000098,0.169,31,4.1,0.0000794,20,10.1016/j.ejpe.2017.05.006,10.1016/j.ces.2022.118208,,10.1016/j.ejpe.2017.05.006,10.1016/j.ejpe.2017.05.006,10.1016/j.ejpe.2017.05.006,10.1016/j.ejpe.2017.05.006,10.1016/j.ejpe.2017.05.006,,"(Z)-4-(((1,5-dimethyl-3-oxo-2-phenyl-2,3-dihydro-1H-pyrazol-4-yl)imino)methyl)-N,N-dimethyl-N-octylbenzenaminiumbromide","InChI=1S/C28H39N4O.BrH/c1-6-7-8-9-10-14-21-32(4,5)26-19-17-24(18-20-26)22-29-27-23(2)30(3)31(28(27)33)25-15-12-11-13-16-25;/h11-13,15-20,22H,6-10,14,21H2,1-5H3;1H/q+1;/p-1",ASWVQFQDPXWAEO-UHFFFAOYSA-M,526.230723968
CCCCCCCC[N+](CCCCC[N+](CCCCCCCC)(CC(C)O)CC(C)O)(CC(C)O)CC(C)O.[Br-].[Br-],gemini cationic,0.00277,2.55752023093555,29,0.00000203,1.23,43,3.79,0.000162,25,10.1016/j.colsurfa.2019.05.019,10.1016/j.ces.2022.118208,,10.1016/j.colsurfa.2019.05.019,10.1016/j.colsurfa.2019.05.019,10.1016/j.colsurfa.2019.05.019,10.1016/j.colsurfa.2019.05.019,10.1016/j.colsurfa.2019.05.019,,di-2-hydroxypropyloctylamines.,"InChI=1S/C33H72N2O4.2BrH/c1-7-9-11-13-15-18-22-34(26-30(3)36,27-31(4)37)24-20-17-21-25-35(28-32(5)38,29-33(6)39)23-19-16-14-12-10-8-2;;/h30-33,36-39H,7-29H2,1-6H3;2*1H/q+2;;/p-2",RRRIRUIKTBHBDE-UHFFFAOYSA-L,718.385882984
CCCCCCCC[N+](CCCCC[N+](CCCCCCCC)CC(C)O)CC(C)O.[Br-].[Br-],gemini cationic,0.033,1.48148606012211,29.9,0.00000227,1.1,42.1,2.54,0.00288,25,10.1016/j.colsurfa.2019.05.019,10.1016/j.ces.2022.118208,,10.1016/j.colsurfa.2019.05.019,10.1016/j.colsurfa.2019.05.019,10.1016/j.colsurfa.2019.05.019,10.1016/j.colsurfa.2019.05.019,10.1016/j.colsurfa.2019.05.019,,2-hydroxypropyloctylamines,"InChI=1S/C27H58N2O2.2BrH/c1-5-7-9-11-13-16-20-28(24-26(3)30)22-18-15-19-23-29(25-27(4)31)21-17-14-12-10-8-6-2;;/h26-27,30-31H,5-25H2,1-4H3;2*1H/q+2;;/p-2",ICQGJZDCUREESP-UHFFFAOYSA-L,600.286503296
CCCCCCCC[N+]1(CC#CC[N+]2(CCCCCCCC)CCCC2)CCCC1.[Br-].[Br-],gemini cationic,0.03548,1.45001638884031,,,,,,,25,10.1063/5.0051623,,,,,,,,,,"InChI=1S/C28H54N2.2BrH/c1-3-5-7-9-11-13-21-29(23-15-16-24-29)27-19-20-28-30(25-17-18-26-30)22-14-12-10-8-6-4-2;;/h3-18,21-28H2,1-2H3;2*1H/q+2;;/p-2",AFQKYWKLEUODEO-UHFFFAOYSA-L,576.265373928
CCCCCCCC[N+]1(CC#CC[N+]2(CCCCCCCC)CCCCC2)CCCCC1.[Br-].[Br-],gemini cationic,0.04775,1.32102662408023,,,,,,,25,10.1063/5.0051623,,,,,,,,,,"InChI=1S/C30H58N2.2BrH/c1-3-5-7-9-11-15-23-31(25-17-13-18-26-31)29-21-22-30-32(27-19-14-20-28-32)24-16-12-10-8-6-4-2;;/h3-20,23-30H2,1-2H3;2*1H/q+2;;/p-2",PZFGBEGVNHXRPX-UHFFFAOYSA-L,604.296674056
CCCCCCCC[n+]1ccc(C)cc1.[Cl-],cationic,,,31,,,,,,,,10.1016/j.ces.2022.118208,,10.1016/j.jcis.2011.12.077,,,,,,,"InChI=1S/C14H24N.ClH/c1-3-4-5-6-7-8-11-15-12-9-14(2)10-13-15;/h9-10,12-13H,3-8,11H2,1-2H3;1H/q+1;/p-1",XHEGBNCFWVDFAR-UHFFFAOYSA-M,241.159727448
CCCCCCCC[n+]1cccc(C)c1.[Cl-],cationic,,,32.4,,,,,,,,10.1016/j.ces.2022.118208,,10.1016/j.jcis.2011.12.077,,,,,,,"InChI=1S/C14H24N.ClH/c1-3-4-5-6-7-8-11-15-12-9-10-14(2)13-15;/h9-10,12-13H,3-8,11H2,1-2H3;1H/q+1;/p-1",JKFPMADPTAYYER-UHFFFAOYSA-M,241.159727448
CCCCCCCC[n+]1cccc(NC(=O)Nc2ccc[n+](CCCCCCCC)c2)c1.[Br-].[Br-],gemini cationic,0.0137,1.86327943284359,39.8,,,32.17,,,25,10.1007/s11743-016-1850-7,10.1007/s11743-016-1850-7,,,,calculated,,10.1007/s11743-016-1850-7,,,"InChI=1S/C27H43N4O.2BrH/c1-3-5-7-9-11-13-19-30-21-15-17-25(23-30)28-27(32)29-26-18-16-22-31(24-26)20-14-12-10-8-6-4-2;;/h15-18,21-24H,3-14,19-20H2,1-2H3,(H-,28,29,32);2*1H/q+1;;/p-1",IVFQJIKXKPCFEA-UHFFFAOYSA-M,598.188186228
CCCCCCCC[n+]1ccccc1.[Cl-],cationic,,,36.8,,,,,,,,10.1016/j.ces.2022.118208,,10.1016/j.jcis.2011.12.077,,,,,,,"InChI=1S/C13H22N.ClH/c1-2-3-4-5-6-8-11-14-12-9-7-10-13-14;/h7,9-10,12-13H,2-6,8,11H2,1H3;1H/q+1;/p-1",OVIYAWWBKPWUOH-UHFFFAOYSA-M,227.144077384
CCCCCCCC[n+]1ccccc1C.[Cl-],cationic,,,31.8,,,,,,,,10.1016/j.ces.2022.118208,,10.1016/j.jcis.2011.12.077,,,,,,,"InChI=1S/C14H24N.ClH/c1-3-4-5-6-7-9-12-15-13-10-8-11-14(15)2;/h8,10-11,13H,3-7,9,12H2,1-2H3;1H/q+1;/p-1",FLEQPJJTOUTHQM-UHFFFAOYSA-M,241.159727448
CCCCCCCCc1ccc(C[C@H](Nc2ccc(S(=O)(=O)[O-])cc2)C(=O)O)cc1.[Na+],anionic,0.0014,2.85387196432176,,,,,,,25,10.1021/ci600462d,,,,,,,,,,"InChI=1S/C23H31NO5S.Na/c1-2-3-4-5-6-7-8-18-9-11-19(12-10-18)17-22(23(25)26)24-20-13-15-21(16-14-20)30(27,28)29;/h9-16,22,24H,2-8,17H2,1H3,(H,25,26)(H,27,28,29);/q;+1/p-1/t22-;/m0./s1",LCRYOKSOYDNQCB-FTBISJDPSA-M,455.17423834
CCCCCCCCc1ccc(OCCOCC)cc1,non-ionic,0.00013,3.88605664769316,,,,,,,25,10.1021/acs.jpcb.1c05264,,10.1002/9781118228920,,,,,,,1-(2-ethoxyethoxy)-4-octylbenzene,"InChI=1S/C18H30O2/c1-3-5-6-7-8-9-10-17-11-13-18(14-12-17)20-16-15-19-4-2/h11-14H,3-10,15-16H2,1-2H3",CWJKJSXSRVLQOZ-UHFFFAOYSA-N,278.2245802
CCCCCCCCc1ccc(OCCOCCOCC)cc1,non-ionic,0.000097,4.01322826573376,,,,,,,25,10.1021/acs.jpcb.1c05264,,10.1002/9781118228920,,,,,,,1-[2-(2-ethoxyethoxy)ethoxy]-4-octylbenzene,"InChI=1S/C20H34O3/c1-3-5-6-7-8-9-10-19-11-13-20(14-12-19)23-18-17-22-16-15-21-4-2/h11-14H,3-10,15-18H2,1-2H3",WQRJYJKGYITJCM-UHFFFAOYSA-N,322.250794948
CCCCCCCCc1ccc(OCCOCCOCCOCC)cc1,non-ionic,0.00013,3.88605664769316,,,,,,,25,10.1021/acs.jpcb.1c05264,,10.1002/9781118228920,,,,,,,,"InChI=1S/C22H38O4/c1-3-5-6-7-8-9-10-21-11-13-22(14-12-21)26-20-19-25-18-17-24-16-15-23-4-2/h11-14H,3-10,15-20H2,1-2H3",AYVFCUFMMUMYCY-UHFFFAOYSA-N,366.277009696
CCCCCCCCc1ccc(OCCOCCOCCOCCOCC)cc1,non-ionic,0.00015,3.82390874094432,,,,,,,25,10.1021/acs.jpcb.1c05264,,10.1002/9781118228920,,,,,,,,"InChI=1S/C24H42O5/c1-3-5-6-7-8-9-10-23-11-13-24(14-12-23)29-22-21-28-20-19-27-18-17-26-16-15-25-4-2/h11-14H,3-10,15-22H2,1-2H3",UAODTQYGJNRHRW-UHFFFAOYSA-N,410.303224444
CCCCCCCCc1ccc(OCCOCCOCCOCCOCCOCC)cc1,non-ionic,0.00021,3.67778070526608,,,,,,,25,10.1021/acs.jpcb.1c05264,,10.1002/9781118228920,,,,,,,,"InChI=1S/C26H46O6/c1-3-5-6-7-8-9-10-25-11-13-26(14-12-25)32-24-23-31-22-21-30-20-19-29-18-17-28-16-15-27-4-2/h11-14H,3-10,15-24H2,1-2H3",MYWXPXUEYUAUBS-UHFFFAOYSA-N,454.329439192
CCCCCCCCc1ccc(OCCOCCOCCOCCOCCOCCOCC)cc1,non-ionic,0.00025,3.60205999132796,30,0.0000029,0.57,42,4.96,0.0000109,25,10.1021/acs.jpcb.1c05264,,10.1002/9781118228920,,10.1002/9781118228920.ch3,10.1002/9781118228920.ch3,,,,,"InChI=1S/C28H50O7/c1-3-5-6-7-8-9-10-27-11-13-28(14-12-27)35-26-25-34-24-23-33-22-21-32-20-19-31-18-17-30-16-15-29-4-2/h11-14H,3-10,15-26H2,1-2H3",SGHQVRAEJRLYPH-UHFFFAOYSA-N,498.35565394
CCCCCCCCc1ccc(OCCOCCOCCOCCOCCOCCOCCO)cc1,non-ionic,,,29.8,,,,,,,,10.1016/j.ces.2022.118208,,10.1002/0471670561,,,,,,,"InChI=1S/C28H50O8/c1-2-3-4-5-6-7-8-27-9-11-28(12-10-27)36-26-25-35-24-23-34-22-21-33-20-19-32-18-17-31-16-15-30-14-13-29/h9-12,29H,2-8,13-26H2,1H3",IZCAZGDGLZWLNZ-UHFFFAOYSA-N,514.35056856
CCCCCCCCc1ccc(OCCOCCOCCOCCOCCOCCOCCOCC)cc1,non-ionic,0.00028,3.55284196865778,32,0.0000026,0.64,40,4.88,0.0000131,25,10.1021/acs.jpcb.1c05264,,10.1002/9781118228920,,10.1002/9781118228920.ch3,10.1002/9781118228920.ch3,,,,,"InChI=1S/C30H54O8/c1-3-5-6-7-8-9-10-29-11-13-30(14-12-29)38-28-27-37-26-25-36-24-23-35-22-21-34-20-19-33-18-17-32-16-15-31-4-2/h11-14H,3-10,15-28H2,1-2H3",ZEVOUQLGIAZUND-UHFFFAOYSA-N,542.381868688
CCCCCCCCc1ccc(OCCOCCOCCOCCOCCOCCOCCOCCO)cc1,non-ionic,,,31.8,,,,,,,,10.1016/j.ces.2022.118208,,10.1002/0471670561,,,,,,,"InChI=1S/C30H54O9/c1-2-3-4-5-6-7-8-29-9-11-30(12-10-29)39-28-27-38-26-25-37-24-23-36-22-21-35-20-19-34-18-17-33-16-15-32-14-13-31/h9-12,31H,2-8,13-28H2,1H3",GAGGDWODDNZVFP-UHFFFAOYSA-N,558.376783308
CCCCCCCCc1ccc(OCCOCCOCCOCCOCCOCCOCCOCCOCCO)cc1,non-ionic,,,33.3,,,,,,,,10.1016/j.ces.2022.118208,,10.1002/0471670561,,,,,,,"InChI=1S/C32H58O10/c1-2-3-4-5-6-7-8-31-9-11-32(12-10-31)42-30-29-41-28-27-40-26-25-39-24-23-38-22-21-37-20-19-36-18-17-35-16-15-34-14-13-33/h9-12,33H,2-8,13-30H2,1H3",LFDLTLMEBDARLN-UHFFFAOYSA-N,602.402998056
CCCCCCCCc1ccc(OCCOCCOCCOCCOCCOCCOCCOCCOCCOCCO)cc1,non-ionic,,,34.8,,,,,,,,10.1016/j.ces.2022.118208,,10.1002/0471670561,,,,,,,"InChI=1S/C34H62O11/c1-2-3-4-5-6-7-8-33-9-11-34(12-10-33)45-32-31-44-30-29-43-28-27-42-26-25-41-24-23-40-22-21-39-20-19-38-18-17-37-16-15-36-14-13-35/h9-12,35H,2-8,13-32H2,1H3",AKBZTYMWSLYNCH-UHFFFAOYSA-N,646.429212804
CCCCCCCCc1ccc(S(=O)(=O)[O-])cc1.[Na+],anionic,0.01239,1.90692869362394,,,,,,,25,10.1021/ci600462d,,10.1016/j.theochem.2004.08.039,,,,,,,sodium-4-octylbenzenesulfonate,"InChI=1S/C14H22O3S.Na/c1-2-3-4-5-6-7-8-13-9-11-14(12-10-13)18(15,16)17;/h9-12H,2-8H2,1H3,(H,15,16,17);/q;+1/p-1",ASJUTVUXOMPOQH-UHFFFAOYSA-M,292.110909812
CCCCCCCCc1ccccc1CCOCCOCCOCCOCCOCCOCCO,non-ionic,0.0003,3.52287874528034,,,,,,,25,10.1002/9781118228920.ch3,,,,,,,,,,"InChI=1S/C28H50O7/c1-2-3-4-5-6-7-10-27-11-8-9-12-28(27)13-15-30-17-19-32-21-23-34-25-26-35-24-22-33-20-18-31-16-14-29/h8-9,11-12,29H,2-7,10,13-26H2,1H3",QXPHBICABUTDQD-UHFFFAOYSA-N,498.35565394
CCCCCCCCc1ccccc1CCOCCOCCOCCOCCOCCOCCOCCO,non-ionic,0.00033,3.48148606012211,,,,,,,25,10.1002/9781118228920.ch3,,,,,,,,,,"InChI=1S/C30H54O8/c1-2-3-4-5-6-7-10-29-11-8-9-12-30(29)13-15-32-17-19-34-21-23-36-25-27-38-28-26-37-24-22-35-20-18-33-16-14-31/h8-9,11-12,31H,2-7,10,13-28H2,1H3",QRWKPMAQGPOUOY-UHFFFAOYSA-N,542.381868688
CCCCCCCCc1ccccc1OOCC,non-ionic,0.00004955,4.30495634117871,,,,,,,25,10.1021/ie4016232,,,,,,,,,,"InChI=1S/C16H26O2/c1-3-5-6-7-8-9-12-15-13-10-11-14-16(15)18-17-4-2/h10-11,13-14H,3-9,12H2,1-2H3",YUHCFBGSUYWTKQ-UHFFFAOYSA-N,250.193280072
CCCCCCCCc1ccccc1OOCCOCC,non-ionic,0.00007656,4.11599807523121,,,,,,,25,10.1021/ie4016232,,,,,,,,,,"InChI=1S/C18H30O3/c1-3-5-6-7-8-9-12-17-13-10-11-14-18(17)21-20-16-15-19-4-2/h10-11,13-14H,3-9,12,15-16H2,1-2H3",WMDMCPXIOCLORO-UHFFFAOYSA-N,294.21949482
CCCCCCCCc1ccccc1OOCCOCCOCC,non-ionic,0.00009705,4.01300446027562,,,,,,,25,10.1021/ie4016232,,,,,,,,,,"InChI=1S/C20H34O4/c1-3-5-6-7-8-9-12-19-13-10-11-14-20(19)24-23-18-17-22-16-15-21-4-2/h10-11,13-14H,3-9,12,15-18H2,1-2H3",NEPRZIVWLVGKGU-UHFFFAOYSA-N,338.245709568